&FCI NORB= 14,NELEC= 10,MS2=0,
 ORBSYM=1,1,1,1,1,1,1,1,1,1,1,1,1,1
 ISYM=1,
&END
 0.9822943117     1     1     2     2
 0.0721974413     1     1     2     4
 -0.1816727037     1     1     2     6
 0.1468428063     1     1     2     9
 -0.0170243165     1     1     2    10
 0.1253712681     1     1     2    13
 0.8559302540     1     1     3     3
 -0.2265456466     1     1     3     7
 0.1503352533     1     1     3     8
 -0.3042523208     1     1     3    12
 0.0721974413     1     1     4     2
 0.9522531094     1     1     4     4
 0.1042797821     1     1     4     6
 -0.1563054142     1     1     4     9
 -0.3596464454     1     1     4    10
 0.0813807633     1     1     4    13
 1.0068924763     1     1     5     5
 0.4557757589     1     1     5    11
 -0.1816727037     1     1     6     2
 0.1042797821     1     1     6     4
 0.3992138873     1     1     6     6
 -0.1606245214     1     1     6     9
 -0.0848148719     1     1     6    10
 -0.0589671555     1     1     6    13
 -0.2265456466     1     1     7     3
 0.3926049841     1     1     7     7
 -0.1545314035     1     1     7     8
 0.2065898332     1     1     7    12
 0.1503352533     1     1     8     3
 -0.1545314035     1     1     8     7
 0.5541888498     1     1     8     8
 -0.1088379735     1     1     8    12
 0.1468428063     1     1     9     2
 -0.1563054142     1     1     9     4
 -0.1606245214     1     1     9     6
 0.5747842969     1     1     9     9
 0.1222745270     1     1     9    10
 0.0005572292     1     1     9    13
 -0.0170243165     1     1    10     2
 -0.3596464454     1     1    10     4
 -0.0848148719     1     1    10     6
 0.1222745270     1     1    10     9
 0.7949384521     1     1    10    10
 -0.0480928257     1     1    10    13
 0.4557757589     1     1    11     5
 0.9487474660     1     1    11    11
 -0.3042523208     1     1    12     3
 0.2065898332     1     1    12     7
 -0.1088379735     1     1    12     8
 0.7471712361     1     1    12    12
 0.1253712681     1     1    13     2
 0.0813807633     1     1    13     4
 -0.0589671555     1     1    13     6
 0.0005572292     1     1    13     9
 -0.0480928257     1     1    13    10
 0.5639951104     1     1    13    13
 0.5158535384     1     1    14    14
 -0.9822943117     1     2     2     1
 -0.0068365941     1     2     2     4
 -0.0026018742     1     2     2     6
 0.0044831070     1     2     2     9
 0.0089712128     1     2     2    10
 -0.0007827252     1     2     2    13
 0.0296763510     1     2     3     3
 -0.0165282626     1     2     3     7
 0.0164658528     1     2     3     8
 -0.0332702747     1     2     3    12
 -0.0721974413     1     2     4     1
 0.0353505674     1     2     4     4
 0.0095697510     1     2     4     6
 -0.0168648055     1     2     4     9
 -0.0358177068     1     2     4    10
 0.0049508860     1     2     4    13
 0.0410004685     1     2     5     5
 0.0478001528     1     2     5    11
 0.1816727037     1     2     6     1
 0.0095960099     1     2     6     4
 0.0025883921     1     2     6     6
 -0.0048976990     1     2     6     9
 -0.0101636259     1     2     6    10
 0.0013319932     1     2     6    13
 -0.0131524303     1     2     7     3
 0.0073697234     1     2     7     7
 -0.0074398610     1     2     7     8
 0.0153121687     1     2     7    12
 0.0115732707     1     2     8     3
 -0.0064690432     1     2     8     7
 0.0061758652     1     2     8     8
 -0.0126790362     1     2     8    12
 -0.1468428063     1     2     9     1
 -0.0142488108     1     2     9     4
 -0.0039563167     1     2     9     6
 0.0067756871     1     2     9     9
 0.0157633450     1     2     9    10
 -0.0025845163     1     2     9    13
 0.0170243165     1     2    10     1
 -0.0238898429     1     2    10     4
 -0.0061402444     1     2    10     6
 0.0119324528     1     2    10     9
 0.0266019715     1     2    10    10
 -0.0052500766     1     2    10    13
 0.0316750108     1     2    11     5
 0.0404126307     1     2    11    11
 -0.0204823513     1     2    12     3
 0.0118822739     1     2    12     7
 -0.0112928739     1     2    12     8
 0.0253272167     1     2    12    12
 -0.1253712681     1     2    13     1
 0.0027341855     1     2    13     4
 0.0006555012     1     2    13     6
 -0.0017449224     1     2    13     9
 -0.0045240085     1     2    13    10
 0.0012300467     1     2    13    13
 -0.0004121627     1     2    14    14
 -0.0031438741     1     3     2     7
 0.0046690551     1     3     2     8
 -0.0123757711     1     3     2    12
 -0.8559302540     1     3     3     1
 -0.0296763510     1     3     3     2
 -0.0102643407     1     3     3     4
 0.0047982880     1     3     3     6
 0.0007759622     1     3     3     9
 0.0050266864     1     3     3    10
 -0.0115238305     1     3     3    13
 0.0018112460     1     3     4     7
 -0.0060411258     1     3     4     8
 -0.0021942127     1     3     4    12
 -0.0059235586     1     3     5    14
 -0.0025034954     1     3     6     7
 -0.0003514079     1     3     6     8
 -0.0017766837     1     3     6    12
 0.2265456466     1     3     7     1
 0.0131524303     1     3     7     2
 0.0045566691     1     3     7     4
 -0.0061333664     1     3     7     6
 0.0033788424     1     3     7     9
 -0.0010201681     1     3     7    10
 0.0051824832     1     3     7    13
 -0.1503352533     1     3     8     1
 -0.0115732707     1     3     8     2
 -0.0037706934     1     3     8     4
 0.0048062439     1     3     8     6
 -0.0088241184     1     3     8     9
 -0.0032461073     1     3     8    10
 -0.0057222184     1     3     8    13
 0.0022560435     1     3     9     7
 -0.0048970516     1     3     9     8
 0.0054396256     1     3     9    12
 -0.0011594729     1     3    10     7
 0.0021750907     1     3    10     8
 -0.0041853439     1     3    10    12
 -0.0000642832     1     3    11    14
 0.3042523208     1     3    12     1
 0.0204823513     1     3    12     2
 0.0071511573     1     3    12     4
 -0.0082011857     1     3    12     6
 0.0059234261     1     3    12     9
 -0.0078399219     1     3    12    10
 0.0093704868     1     3    12    13
 -0.0008341925     1     3    13     7
 -0.0006666642     1     3    13     8
 -0.0037330159     1     3    13    12
 0.0009805267     1     3    14     5
 0.0082520066     1     3    14    11
 -0.0721974413     1     4     2     1
 0.0068365941     1     4     2     2
 -0.0001641609     1     4     2     6
 -0.0024545486     1     4     2     9
 -0.0114572368     1     4     2    10
 0.0021985198     1     4     2    13
 0.0102643407     1     4     3     3
 -0.0027304094     1     4     3     7
 -0.0023859729     1     4     3     8
 -0.0094723433     1     4     3    12
 -0.9522531094     1     4     4     1
 -0.0353505674     1     4     4     2
 0.0109206278     1     4     4     6
 -0.0128933022     1     4     4     9
 -0.0061303913     1     4     4    10
 0.0004180316     1     4     4    13
 0.0138173080     1     4     5     5
 0.0151975742     1     4     5    11
 -0.1042797821     1     4     6     1
 -0.0095960099     1     4     6     2
 0.0056335539     1     4     6     6
 -0.0052064325     1     4     6     9
 -0.0023204410     1     4     6    10
 -0.0011176190     1     4     6    13
 -0.0045566691     1     4     7     3
 0.0038893169     1     4     7     7
 -0.0017012410     1     4     7     8
 0.0067729988     1     4     7    12
 0.0037706934     1     4     8     3
 -0.0041229877     1     4     8     7
 0.0062282871     1     4     8     8
 -0.0108742504     1     4     8    12
 0.1563054142     1     4     9     1
 0.0142488108     1     4     9     2
 -0.0070323542     1     4     9     6
 0.0110959451     1     4     9     9
 -0.0002199957     1     4     9    10
 0.0035226859     1     4     9    13
 0.3596464454     1     4    10     1
 0.0238898429     1     4    10     2
 -0.0122085320     1     4    10     6
 0.0103871911     1     4    10     9
 0.0045641751     1     4    10    10
 0.0095842079     1     4    10    13
 0.0109078453     1     4    11     5
 0.0135269505     1     4    11    11
 -0.0071511573     1     4    12     3
 0.0035344639     1     4    12     7
 -0.0028034530     1     4    12     8
 0.0055918006     1     4    12    12
 -0.0813807633     1     4    13     1
 -0.0027341855     1     4    13     2
 0.0003470913     1     4    13     6
 0.0018217438     1     4    13     9
 0.0090843804     1     4    13    10
 0.0004522297     1     4    13    13
 0.0061484138     1     4    14    14
 0.0155813241     1     5     2    11
 -0.0068944379     1     5     3    14
 0.0042196909     1     5     4    11
 -1.0068924763     1     5     5     1
 -0.0410004685     1     5     5     2
 -0.0138173080     1     5     5     4
 0.0102698098     1     5     5     6
 -0.0124040120     1     5     5     9
 0.0093080967     1     5     5    10
 -0.0123576116     1     5     5    13
 0.0002536898     1     5     6    11
 0.0013893892     1     5     7    14
 -0.0006894631     1     5     8    14
 0.0047889756     1     5     9    11
 -0.0025251899     1     5    10    11
 -0.4557757589     1     5    11     1
 -0.0316750108     1     5    11     2
 -0.0109078453     1     5    11     4
 0.0131198726     1     5    11     6
 -0.0108272645     1     5    11     9
 0.0078027476     1     5    11    10
 -0.0143780184     1     5    11    13
 0.0008697705     1     5    12    14
 0.0005692066     1     5    13    11
 -0.0009805267     1     5    14     3
 -0.0018855574     1     5    14     7
 0.0023488470     1     5    14     8
 -0.0059402448     1     5    14    12
 0.1816727037     1     6     2     1
 0.0026018742     1     6     2     2
 0.0001641609     1     6     2     4
 -0.0009478150     1     6     2     9
 -0.0039095495     1     6     2    10
 0.0006373654     1     6     2    13
 -0.0047982880     1     6     3     3
 0.0036377135     1     6     3     7
 -0.0051711344     1     6     3     8
 0.0064855040     1     6     3    12
 -0.1042797821     1     6     4     1
 -0.0095697510     1     6     4     2
 -0.0109206278     1     6     4     4
 0.0018773761     1     6     4     9
 0.0099436864     1     6     4    10
 -0.0015144057     1     6     4    13
 -0.0102698098     1     6     5     5
 -0.0127153522     1     6     5    11
 -0.3992138873     1     6     6     1
 -0.0025883921     1     6     6     2
 -0.0056335539     1     6     6     4
 0.0013471023     1     6     6     9
 0.0051319671     1     6     6    10
 -0.0011355924     1     6     6    13
 0.0061333664     1     6     7     3
 -0.0029270956     1     6     7     7
 0.0034460015     1     6     7     8
 -0.0064012952     1     6     7    12
 -0.0048062439     1     6     8     3
 0.0020223072     1     6     8     7
 -0.0012251212     1     6     8     8
 0.0034077396     1     6     8    12
 0.1606245214     1     6     9     1
 0.0039563167     1     6     9     2
 0.0070323542     1     6     9     4
 -0.0002631364     1     6     9     9
 -0.0075558344     1     6     9    10
 0.0021385737     1     6     9    13
 0.0848148719     1     6    10     1
 0.0061402444     1     6    10     2
 0.0122085320     1     6    10     4
 -0.0032856303     1     6    10     9
 -0.0116759248     1     6    10    10
 0.0049311732     1     6    10    13
 -0.0131198726     1     6    11     5
 -0.0158606181     1     6    11    11
 0.0082011857     1     6    12     3
 -0.0047194445     1     6    12     7
 0.0047164675     1     6    12     8
 -0.0103718295     1     6    12    12
 0.0589671555     1     6    13     1
 -0.0006555012     1     6    13     2
 -0.0003470913     1     6    13     4
 0.0007919934     1     6    13     9
 0.0033918756     1     6    13    10
 -0.0000420461     1     6    13    13
 0.0019062756     1     6    14    14
 0.0031438741     1     7     2     3
 -0.0009659517     1     7     2     8
 0.0032817868     1     7     2    12
 0.2265456466     1     7     3     1
 0.0165282626     1     7     3     2
 0.0027304094     1     7     3     4
 -0.0036377135     1     7     3     6
 0.0011091242     1     7     3     9
 0.0001726418     1     7     3    10
 0.0060516310     1     7     3    13
 -0.0018112460     1     7     4     3
 0.0024064843     1     7     4     8
 0.0031756892     1     7     4    12
 0.0033078934     1     7     5    14
 0.0025034954     1     7     6     3
 0.0014231431     1     7     6     8
 -0.0016687423     1     7     6    12
 -0.3926049841     1     7     7     1
 -0.0073697234     1     7     7     2
 -0.0038893169     1     7     7     4
 0.0029270956     1     7     7     6
 -0.0012331910     1     7     7     9
 0.0018528921     1     7     7    10
 -0.0030402340     1     7     7    13
 0.1545314035     1     7     8     1
 0.0064690432     1     7     8     2
 0.0041229877     1     7     8     4
 -0.0020223072     1     7     8     6
 0.0037163253     1     7     8     9
 -0.0002810614     1     7     8    10
 0.0034221587     1     7     8    13
 -0.0022560435     1     7     9     3
 0.0014724580     1     7     9     8
 -0.0005003101     1     7     9    12
 0.0011594729     1     7    10     3
 -0.0005868702     1     7    10     8
 0.0009928505     1     7    10    12
 0.0000379163     1     7    11    14
 -0.2065898332     1     7    12     1
 -0.0118822739     1     7    12     2
 -0.0035344639     1     7    12     4
 0.0047194445     1     7    12     6
 -0.0035876349     1     7    12     9
 0.0037500760     1     7    12    10
 -0.0051250353     1     7    12    13
 0.0008341925     1     7    13     3
 0.0007738562     1     7    13     8
 0.0011505047     1     7    13    12
 0.0018855574     1     7    14     5
 -0.0017003112     1     7    14    11
 -0.0046690551     1     8     2     3
 0.0009659517     1     8     2     7
 -0.0012754263     1     8     2    12
 -0.1503352533     1     8     3     1
 -0.0164658528     1     8     3     2
 0.0023859729     1     8     3     4
 0.0051711344     1     8     3     6
 -0.0038954185     1     8     3     9
 -0.0053151180     1     8     3    10
 -0.0051622669     1     8     3    13
 0.0060411258     1     8     4     3
 -0.0024064843     1     8     4     7
 -0.0079481009     1     8     4    12
 -0.0030264557     1     8     5    14
 0.0003514079     1     8     6     3
 -0.0014231431     1     8     6     7
 -0.0013248948     1     8     6    12
 0.1545314035     1     8     7     1
 0.0074398610     1     8     7     2
 0.0017012410     1     8     7     4
 -0.0034460015     1     8     7     6
 0.0022484662     1     8     7     9
 0.0003181707     1     8     7    10
 0.0026504996     1     8     7    13
 -0.5541888498     1     8     8     1
 -0.0061758652     1     8     8     2
 -0.0062282871     1     8     8     4
 0.0012251212     1     8     8     6
 -0.0023950978     1     8     8     9
 0.0024102403     1     8     8    10
 -0.0034582565     1     8     8    13
 0.0048970516     1     8     9     3
 -0.0014724580     1     8     9     7
 -0.0024079488     1     8     9    12
 -0.0021750907     1     8    10     3
 0.0005868702     1     8    10     7
 0.0003158796     1     8    10    12
 -0.0001071571     1     8    11    14
 0.1088379735     1     8    12     1
 0.0112928739     1     8    12     2
 0.0028034530     1     8    12     4
 -0.0047164675     1     8    12     6
 0.0037286629     1     8    12     9
 -0.0029230912     1     8    12    10
 0.0048633363     1     8    12    13
 0.0006666642     1     8    13     3
 -0.0007738562     1     8    13     7
 -0.0025970501     1     8    13    12
 -0.0023488470     1     8    14     5
 0.0009051262     1     8    14    11
 -0.1468428063     1     9     2     1
 -0.0044831070     1     9     2     2
 0.0024545486     1     9     2     4
 0.0009478150     1     9     2     6
 0.0037489993     1     9     2    10
 -0.0008359691     1     9     2    13
 -0.0007759622     1     9     3     3
 -0.0011091242     1     9     3     7
 0.0038954185     1     9     3     8
 -0.0005444773     1     9     3    12
 0.1563054142     1     9     4     1
 0.0168648055     1     9     4     2
 0.0128933022     1     9     4     4
 -0.0018773761     1     9     4     6
 -0.0106444651     1     9     4    10
 0.0018212505     1     9     4    13
 0.0124040120     1     9     5     5
 0.0153584464     1     9     5    11
 0.1606245214     1     9     6     1
 0.0048976990     1     9     6     2
 0.0052064325     1     9     6     4
 -0.0013471023     1     9     6     6
 -0.0042690011     1     9     6    10
 0.0013473560     1     9     6    13
 -0.0033788424     1     9     7     3
 0.0012331910     1     9     7     7
 -0.0022484662     1     9     7     8
 0.0030822874     1     9     7    12
 0.0088241184     1     9     8     3
 -0.0037163253     1     9     8     7
 0.0023950978     1     9     8     8
 -0.0061360803     1     9     8    12
 -0.5747842969     1     9     9     1
 -0.0067756871     1     9     9     2
 -0.0110959451     1     9     9     4
 0.0002631364     1     9     9     6
 0.0116304074     1     9     9    10
 -0.0034510183     1     9     9    13
 -0.1222745270     1     9    10     1
 -0.0119324528     1     9    10     2
 -0.0103871911     1     9    10     4
 0.0032856303     1     9    10     6
 0.0090835263     1     9    10    10
 -0.0068364371     1     9    10    13
 0.0108272645     1     9    11     5
 0.0134241061     1     9    11    11
 -0.0059234261     1     9    12     3
 0.0035876349     1     9    12     7
 -0.0037286629     1     9    12     8
 0.0085158195     1     9    12    12
 -0.0005572292     1     9    13     1
 0.0017449224     1     9    13     2
 -0.0018217438     1     9    13     4
 -0.0007919934     1     9    13     6
 -0.0031230790     1     9    13    10
 -0.0001833486     1     9    13    13
 -0.0031029965     1     9    14    14
 0.0170243165     1    10     2     1
 -0.0089712128     1    10     2     2
 0.0114572368     1    10     2     4
 0.0039095495     1    10     2     6
 -0.0037489993     1    10     2     9
 -0.0007515189     1    10     2    13
 -0.0050266864     1    10     3     3
 -0.0001726418     1    10     3     7
 0.0053151180     1    10     3     8
 0.0036333355     1    10     3    12
 0.3596464454     1    10     4     1
 0.0358177068     1    10     4     2
 0.0061303913     1    10     4     4
 -0.0099436864     1    10     4     6
 0.0106444651     1    10     4     9
 0.0007048441     1    10     4    13
 -0.0093080967     1    10     5     5
 -0.0100418934     1    10     5    11
 0.0848148719     1    10     6     1
 0.0101636259     1    10     6     2
 0.0023204410     1    10     6     4
 -0.0051319671     1    10     6     6
 0.0042690011     1    10     6     9
 0.0015395461     1    10     6    13
 0.0010201681     1    10     7     3
 -0.0018528921     1    10     7     7
 -0.0003181707     1    10     7     8
 -0.0027485134     1    10     7    12
 0.0032461073     1    10     8     3
 0.0002810614     1    10     8     7
 -0.0024102403     1    10     8     8
 0.0032176303     1    10     8    12
 -0.1222745270     1    10     9     1
 -0.0157633450     1    10     9     2
 0.0002199957     1    10     9     4
 0.0075558344     1    10     9     6
 -0.0116304074     1    10     9     9
 -0.0037146272     1    10     9    13
 -0.7949384521     1    10    10     1
 -0.0266019715     1    10    10     2
 -0.0045641751     1    10    10     4
 0.0116759248     1    10    10     6
 -0.0090835263     1    10    10     9
 -0.0109352293     1    10    10    13
 -0.0078027476     1    10    11     5
 -0.0094043985     1    10    11    11
 0.0078399219     1    10    12     3
 -0.0037500760     1    10    12     7
 0.0029230912     1    10    12     8
 -0.0058686345     1    10    12    12
 0.0480928257     1    10    13     1
 0.0045240085     1    10    13     2
 -0.0090843804     1    10    13     4
 -0.0033918756     1    10    13     6
 0.0031230790     1    10    13     9
 -0.0013378068     1    10    13    13
 -0.0060579449     1    10    14    14
 -0.0155813241     1    11     2     5
 -0.0079970961     1    11     3    14
 -0.0042196909     1    11     4     5
 -0.4557757589     1    11     5     1
 -0.0478001528     1    11     5     2
 -0.0151975742     1    11     5     4
 0.0127153522     1    11     5     6
 -0.0153584464     1    11     5     9
 0.0100418934     1    11     5    10
 -0.0147783642     1    11     5    13
 -0.0002536898     1    11     6     5
 0.0017468826     1    11     7    14
 -0.0010191999     1    11     8    14
 -0.0047889756     1    11     9     5
 0.0025251899     1    11    10     5
 -0.9487474660     1    11    11     1
 -0.0404126307     1    11    11     2
 -0.0135269505     1    11    11     4
 0.0158606181     1    11    11     6
 -0.0134241061     1    11    11     9
 0.0094043985     1    11    11    10
 -0.0175342132     1    11    11    13
 0.0010859144     1    11    12    14
 -0.0005692066     1    11    13     5
 -0.0082520066     1    11    14     3
 0.0017003112     1    11    14     7
 -0.0009051262     1    11    14     8
 0.0009051343     1    11    14    12
 0.0123757711     1    12     2     3
 -0.0032817868     1    12     2     7
 0.0012754263     1    12     2     8
 0.3042523208     1    12     3     1
 0.0332702747     1    12     3     2
 0.0094723433     1    12     3     4
 -0.0064855040     1    12     3     6
 0.0005444773     1    12     3     9
 -0.0036333355     1    12     3    10
 0.0131517743     1    12     3    13
 0.0021942127     1    12     4     3
 -0.0031756892     1    12     4     7
 0.0079481009     1    12     4     8
 0.0068726621     1    12     5    14
 0.0017766837     1    12     6     3
 0.0016687423     1    12     6     7
 0.0013248948     1    12     6     8
 -0.2065898332     1    12     7     1
 -0.0153121687     1    12     7     2
 -0.0067729988     1    12     7     4
 0.0064012952     1    12     7     6
 -0.0030822874     1    12     7     9
 0.0027485134     1    12     7    10
 -0.0062942669     1    12     7    13
 0.1088379735     1    12     8     1
 0.0126790362     1    12     8     2
 0.0108742504     1    12     8     4
 -0.0034077396     1    12     8     6
 0.0061360803     1    12     8     9
 -0.0032176303     1    12     8    10
 0.0074683845     1    12     8    13
 -0.0054396256     1    12     9     3
 0.0005003101     1    12     9     7
 0.0024079488     1    12     9     8
 0.0041853439     1    12    10     3
 -0.0009928505     1    12    10     7
 -0.0003158796     1    12    10     8
 0.0001957306     1    12    11    14
 -0.7471712361     1    12    12     1
 -0.0253272167     1    12    12     2
 -0.0055918006     1    12    12     4
 0.0103718295     1    12    12     6
 -0.0085158195     1    12    12     9
 0.0058686345     1    12    12    10
 -0.0105454579     1    12    12    13
 0.0037330159     1    12    13     3
 -0.0011505047     1    12    13     7
 0.0025970501     1    12    13     8
 0.0059402448     1    12    14     5
 -0.0009051343     1    12    14    11
 -0.1253712681     1    13     2     1
 0.0007827252     1    13     2     2
 -0.0021985198     1    13     2     4
 -0.0006373654     1    13     2     6
 0.0008359691     1    13     2     9
 0.0007515189     1    13     2    10
 0.0115238305     1    13     3     3
 -0.0060516310     1    13     3     7
 0.0051622669     1    13     3     8
 -0.0131517743     1    13     3    12
 -0.0813807633     1    13     4     1
 -0.0049508860     1    13     4     2
 -0.0004180316     1    13     4     4
 0.0015144057     1    13     4     6
 -0.0018212505     1    13     4     9
 -0.0007048441     1    13     4    10
 0.0123576116     1    13     5     5
 0.0147783642     1    13     5    11
 0.0589671555     1    13     6     1
 -0.0013319932     1    13     6     2
 0.0011176190     1    13     6     4
 0.0011355924     1    13     6     6
 -0.0013473560     1    13     6     9
 -0.0015395461     1    13     6    10
 -0.0051824832     1    13     7     3
 0.0030402340     1    13     7     7
 -0.0026504996     1    13     7     8
 0.0062942669     1    13     7    12
 0.0057222184     1    13     8     3
 -0.0034221587     1    13     8     7
 0.0034582565     1    13     8     8
 -0.0074683845     1    13     8    12
 -0.0005572292     1    13     9     1
 0.0025845163     1    13     9     2
 -0.0035226859     1    13     9     4
 -0.0021385737     1    13     9     6
 0.0034510183     1    13     9     9
 0.0037146272     1    13     9    10
 0.0480928257     1    13    10     1
 0.0052500766     1    13    10     2
 -0.0095842079     1    13    10     4
 -0.0049311732     1    13    10     6
 0.0068364371     1    13    10     9
 0.0109352293     1    13    10    10
 0.0143780184     1    13    11     5
 0.0175342132     1    13    11    11
 -0.0093704868     1    13    12     3
 0.0051250353     1    13    12     7
 -0.0048633363     1    13    12     8
 0.0105454579     1    13    12    12
 -0.5639951104     1    13    13     1
 -0.0012300467     1    13    13     2
 -0.0004522297     1    13    13     4
 0.0000420461     1    13    13     6
 0.0001833486     1    13    13     9
 0.0013378068     1    13    13    10
 0.0008021688     1    13    14    14
 0.0068944379     1    14     3     5
 0.0079970961     1    14     3    11
 0.0059235586     1    14     5     3
 -0.0033078934     1    14     5     7
 0.0030264557     1    14     5     8
 -0.0068726621     1    14     5    12
 -0.0013893892     1    14     7     5
 -0.0017468826     1    14     7    11
 0.0006894631     1    14     8     5
 0.0010191999     1    14     8    11
 0.0000642832     1    14    11     3
 -0.0000379163     1    14    11     7
 0.0001071571     1    14    11     8
 -0.0001957306     1    14    11    12
 -0.0008697705     1    14    12     5
 -0.0010859144     1    14    12    11
 -0.5158535384     1    14    14     1
 0.0004121627     1    14    14     2
 -0.0061484138     1    14    14     4
 -0.0019062756     1    14    14     6
 0.0031029965     1    14    14     9
 0.0060579449     1    14    14    10
 -0.0008021688     1    14    14    13
 -0.9822943117     2     1     1     2
 -0.0721974413     2     1     1     4
 0.1816727037     2     1     1     6
 -0.1468428063     2     1     1     9
 0.0170243165     2     1     1    10
 -0.1253712681     2     1     1    13
 0.0296763510     2     1     3     3
 -0.0131524303     2     1     3     7
 0.0115732707     2     1     3     8
 -0.0204823513     2     1     3    12
 -0.0068365941     2     1     4     2
 0.0353505674     2     1     4     4
 0.0095960099     2     1     4     6
 -0.0142488108     2     1     4     9
 -0.0238898429     2     1     4    10
 0.0027341855     2     1     4    13
 0.0410004685     2     1     5     5
 0.0316750108     2     1     5    11
 -0.0026018742     2     1     6     2
 0.0095697510     2     1     6     4
 0.0025883921     2     1     6     6
 -0.0039563167     2     1     6     9
 -0.0061402444     2     1     6    10
 0.0006555012     2     1     6    13
 -0.0165282626     2     1     7     3
 0.0073697234     2     1     7     7
 -0.0064690432     2     1     7     8
 0.0118822739     2     1     7    12
 0.0164658528     2     1     8     3
 -0.0074398610     2     1     8     7
 0.0061758652     2     1     8     8
 -0.0112928739     2     1     8    12
 0.0044831070     2     1     9     2
 -0.0168648055     2     1     9     4
 -0.0048976990     2     1     9     6
 0.0067756871     2     1     9     9
 0.0119324528     2     1     9    10
 -0.0017449224     2     1     9    13
 0.0089712128     2     1    10     2
 -0.0358177068     2     1    10     4
 -0.0101636259     2     1    10     6
 0.0157633450     2     1    10     9
 0.0266019715     2     1    10    10
 -0.0045240085     2     1    10    13
 0.0478001528     2     1    11     5
 0.0404126307     2     1    11    11
 -0.0332702747     2     1    12     3
 0.0153121687     2     1    12     7
 -0.0126790362     2     1    12     8
 0.0253272167     2     1    12    12
 -0.0007827252     2     1    13     2
 0.0049508860     2     1    13     4
 0.0013319932     2     1    13     6
 -0.0025845163     2     1    13     9
 -0.0052500766     2     1    13    10
 0.0012300467     2     1    13    13
 -0.0004121627     2     1    14    14
 0.9822943117     2     2     1     1
 0.0068365941     2     2     1     4
 0.0026018742     2     2     1     6
 -0.0044831070     2     2     1     9
 -0.0089712128     2     2     1    10
 0.0007827252     2     2     1    13
 0.5248252684     2     2     3     3
 -0.0860006947     2     2     3     7
 0.0314336697     2     2     3     8
 -0.1006469709     2     2     3    12
 0.0068365941     2     2     4     1
 0.5531559588     2     2     4     4
 0.0428786425     2     2     4     6
 -0.0512638971     2     2     4     9
 -0.1162087387     2     2     4    10
 0.0343242851     2     2     4    13
 0.5844687974     2     2     5     5
 0.1477308201     2     2     5    11
 0.0026018742     2     2     6     1
 0.0428786425     2     2     6     4
 0.3312935134     2     2     6     6
 -0.0787061564     2     2     6     9
 -0.0404402007     2     2     6    10
 -0.0216958926     2     2     6    13
 -0.0860006947     2     2     7     3
 0.3276336203     2     2     7     7
 -0.0854979739     2     2     7     8
 0.0934737546     2     2     7    12
 0.0314336697     2     2     8     3
 -0.0854979739     2     2     8     7
 0.4728472779     2     2     8     8
 -0.0224085449     2     2     8    12
 -0.0044831070     2     2     9     1
 -0.0512638971     2     2     9     4
 -0.0787061564     2     2     9     6
 0.4704842798     2     2     9     9
 0.0243150642     2     2     9    10
 -0.0106683701     2     2     9    13
 -0.0089712128     2     2    10     1
 -0.1162087387     2     2    10     4
 -0.0404402007     2     2    10     6
 0.0243150642     2     2    10     9