&FCI NORB= 13,NELEC= 16,MS2=0,
 ORBSYM=1,1,1,1,1,1,1,1,1,1,1,1,1
 ISYM=1,
&END
 0.3952084674     1     1     2     2
 0.0000000010     1     1     2     3
 -0.0051096189     1     1     2     4
 0.0000000029     1     1     2     7
 0.0000000006     1     1     2    10
 0.0015492791     1     1     2    11
 0.0000000010     1     1     3     2
 0.6004684970     1     1     3     3
 -0.0000000656     1     1     3     4
 0.1111591374     1     1     3     7
 -0.0412941433     1     1     3    10
 0.0000000193     1     1     3    11
 -0.0051096189     1     1     4     2
 -0.0000000656     1     1     4     3
 0.4815199511     1     1     4     4
 0.0000000587     1     1     4     7
 0.0000000235     1     1     4    10
 -0.0719469549     1     1     4    11
 0.4779881209     1     1     5     5
 -0.0000000647     1     1     5     6
 -0.0000000349     1     1     5     8
 -0.0330810203     1     1     5     9
 0.0000000236     1     1     5    12
 -0.0791218615     1     1     5    13
 -0.0000000647     1     1     6     5
 0.4786764468     1     1     6     6
 -0.0360375933     1     1     6     8
 -0.0000000319     1     1     6     9
 -0.0777579746     1     1     6    12
 0.0000000114     1     1     6    13
 0.0000000029     1     1     7     2
 0.1111591374     1     1     7     3
 0.0000000587     1     1     7     4
 0.5611688460     1     1     7     7
 0.0566006085     1     1     7    10
 -0.0000000075     1     1     7    11
 -0.0000000349     1     1     8     5
 -0.0360375933     1     1     8     6
 0.4870331990     1     1     8     8
 0.0000000564     1     1     8     9
 0.0055409321     1     1     8    12
 0.0000000027     1     1     8    13
 -0.0330810203     1     1     9     5
 -0.0000000319     1     1     9     6
 0.0000000564     1     1     9     8
 0.4409993034     1     1     9     9
 0.0000000008     1     1     9    12
 0.0011134825     1     1     9    13
 0.0000000006     1     1    10     2
 -0.0412941433     1     1    10     3
 0.0000000235     1     1    10     4
 0.0566006085     1     1    10     7
 0.2191736693     1     1    10    10
 -0.0000000169     1     1    10    11
 0.0015492791     1     1    11     2
 0.0000000193     1     1    11     3
 -0.0719469549     1     1    11     4
 -0.0000000075     1     1    11     7
 -0.0000000169     1     1    11    10
 0.2134819099     1     1    11    11
 0.0000000236     1     1    12     5
 -0.0777579746     1     1    12     6
 0.0055409321     1     1    12     8
 0.0000000008     1     1    12     9
 0.2109022397     1     1    12    12
 -0.0000000144     1     1    12    13
 -0.0791218615     1     1    13     5
 0.0000000114     1     1    13     6
 0.0000000027     1     1    13     8
 0.0011134825     1     1    13     9
 -0.0000000144     1     1    13    12
 0.2119557802     1     1    13    13
 -0.3952084674     1     2     2     1
 -0.0045262514     1     2     2     3
 -0.0000000012     1     2     2     4
 -0.0129791188     1     2     2     7
 -0.0025236510     1     2     2    10
 0.0000000004     1     2     2    11
 -0.0000000010     1     2     3     1
 -0.0000000002     1     2     3     3
 0.1476138844     1     2     3     4
 -0.0000000001     1     2     3     7
 0.0000000002     1     2     3    10
 -0.0437762843     1     2     3    11
 0.0051096189     1     2     4     1
 0.1477367078     1     2     4     3
 -0.0000000001     1     2     4     4
 -0.1314459747     1     2     4     7
 -0.0522445182     1     2     4    10
 -0.0000000002     1     2     4    11
 -0.0000000048     1     2     5     5
 0.1454591554     1     2     5     6
 0.0798603060     1     2     5     8
 -0.0000000009     1     2     5     9
 -0.0385175124     1     2     5    12
 -0.0000000019     1     2     5    13
 0.1454486520     1     2     6     5
 0.0000000045     1     2     6     6
 0.0000000012     1     2     6     8
 0.0706220041     1     2     6     9
 0.0000000020     1     2     6    12
 -0.0399331954     1     2     6    13
 -0.0000000029     1     2     7     1
 -0.0000000001     1     2     7     3
 -0.1317886459     1     2     7     4
 0.0173973153     1     2     7    11
 0.0796262192     1     2     8     5
 0.0000000012     1     2     8     6
 0.0000000004     1     2     8     8
 -0.1269933280     1     2     8     9
 0.0000000003     1     2     8    12
 -0.0051334414     1     2     8    13
 -0.0000000009     1     2     9     5
 0.0704112407     1     2     9     6
 -0.1269849683     1     2     9     8
 -0.0000000003     1     2     9     9
 -0.0018228332     1     2     9    12
 -0.0000000002     1     2     9    13
 -0.0000000006     1     2    10     1
 0.0000000002     1     2    10     3
 -0.0523093112     1     2    10     4
 -0.0000000002     1     2    10    10
 0.0381264929     1     2    10    11
 -0.0015492791     1     2    11     1
 -0.0438140770     1     2    11     3
 -0.0000000002     1     2    11     4
 0.0172912320     1     2    11     7
 0.0381064008     1     2    11    10
 0.0000000002     1     2    11    11
 -0.0385059930     1     2    12     5
 0.0000000020     1     2    12     6
 0.0000000003     1     2    12     8
 -0.0019126099     1     2    12     9
 -0.0000000043     1     2    12    12
 0.0322182126     1     2    12    13
 -0.0000000019     1     2    13     5
 -0.0399263792     1     2    13     6
 -0.0052373309     1     2    13     8
 -0.0000000002     1     2    13     9
 0.0322184231     1     2    13    12
 0.0000000042     1     2    13    13
 -0.0000000010     1     3     2     1
 0.0045262514     1     3     2     2
 -0.0001228234     1     3     2     4
 0.0000377927     1     3     2    11
 -0.6004684970     1     3     3     1
 0.0000000002     1     3     3     2
 -0.0000000009     1     3     3     4
 -0.0096149569     1     3     3     7
 -0.0025717212     1     3     3    10
 0.0000000003     1     3     3    11
 0.0000000656     1     3     4     1
 -0.1477367078     1     3     4     2
 -0.0052493837     1     3     4     4
 -0.0000000024     1     3     4     7
 -0.0000000006     1     3     4    10
 0.0016133965     1     3     4    11
 -0.0109760086     1     3     5     5
 0.0000000024     1     3     5     6
 0.0000000015     1     3     5     8
 0.0020462321     1     3     5     9
 -0.0000000013     1     3     5    12
 0.0044816828     1     3     5    13
 0.0000000024     1     3     6     5
 -0.0109044426     1     3     6     6
 0.0021761070     1     3     6     8
 0.0000000014     1     3     6     9
 0.0044115175     1     3     6    12
 -0.0000000006     1     3     6    13
 -0.1111591374     1     3     7     1
 0.0000000001     1     3     7     2
 -0.0000000027     1     3     7     4
 -0.0178898425     1     3     7     7
 -0.0051699911     1     3     7    10
 0.0000000007     1     3     7    11
 0.0000000009     1     3     8     5
 0.0019174200     1     3     8     6
 -0.0104317993     1     3     8     8
 -0.0000000024     1     3     8     9
 -0.0005970424     1     3     8    12
 -0.0000000003     1     3     8    13
 0.0018642806     1     3     9     5
 0.0000000008     1     3     9     6
 -0.0000000024     1     3     9     8
 -0.0083740576     1     3     9     9
 -0.0000000002     1     3     9    12
 -0.0004283603     1     3     9    13
 0.0412941433     1     3    10     1
 -0.0000000002     1     3    10     2
 -0.0000000005     1     3    10     4
 -0.0028092157     1     3    10     7
 -0.0007907878     1     3    10    10
 0.0000000002     1     3    10    11
 -0.0000000193     1     3    11     1
 0.0438140770     1     3    11     2
 0.0011582999     1     3    11     4
 0.0000000005     1     3    11     7
 0.0000000002     1     3    11    10
 -0.0004933585     1     3    11    11
 -0.0000000010     1     3    12     5
 0.0034794283     1     3    12     6
 -0.0003640667     1     3    12     8
 -0.0000000003     1     3    12     9
 -0.0014545555     1     3    12    12
 0.0000000004     1     3    12    13
 0.0035655414     1     3    13     5
 -0.0000000005     1     3    13     6
 -0.0000000004     1     3    13     8
 -0.0002717877     1     3    13     9
 0.0000000004     1     3    13    12
 -0.0015262727     1     3    13    13
 0.0051096189     1     4     2     1
 0.0000000012     1     4     2     2
 0.0001228234     1     4     2     3
 0.0003426712     1     4     2     7
 0.0000647930     1     4     2    10
 0.0000000656     1     4     3     1
 -0.1476138844     1     4     3     2
 0.0000000009     1     4     3     3
 0.0000000003     1     4     3     7
 -0.0000000001     1     4     3    10
 0.0004550966     1     4     3    11
 -0.4815199511     1     4     4     1
 0.0000000001     1     4     4     2
 0.0052493837     1     4     4     3
 0.0025814849     1     4     4     7
 0.0001252589     1     4     4    10
 -0.0000000001     1     4     4    11
 0.0000000024     1     4     5     5
 -0.0064079107     1     4     5     6
 -0.0015392881     1     4     5     8
 -0.0000000002     1     4     5     9
 0.0033161103     1     4     5    12
 -0.0000000008     1     4     5    13
 -0.0064434761     1     4     6     5
 0.0000000020     1     4     6     6
 -0.0000000003     1     4     6     8
 -0.0011800473     1     4     6     9
 -0.0000000011     1     4     6    12
 0.0034630390     1     4     6    13
 -0.0000000587     1     4     7     1
 0.1317886459     1     4     7     2
 0.0000000027     1     4     7     3
 0.0000000037     1     4     7     7
 0.0000000003     1     4     7    10
 -0.0003174229     1     4     7    11
 -0.0038125289     1     4     8     5
 -0.0000000003     1     4     8     6
 0.0000000023     1     4     8     8
 0.0062931647     1     4     8     9
 -0.0000000001     1     4     8    12
 0.0017753336     1     4     8    13
 -0.0000000001     1     4     9     5
 -0.0033569210     1     4     9     6
 0.0066105197     1     4     9     8
 0.0000000019     1     4     9     9
 0.0017293403     1     4     9    12
 0.0000000001     1     4     9    13
 -0.0000000235     1     4    10     1
 0.0523093112     1     4    10     2
 0.0000000005     1     4    10     3
 0.0000000007     1     4    10     7
 0.0000000001     1     4    10    10
 0.0005097131     1     4    10    11
 0.0719469549     1     4    11     1
 0.0000000002     1     4    11     2
 -0.0011582999     1     4    11     3
 -0.0007634606     1     4    11     7
 0.0005742482     1     4    11    10
 0.0022868477     1     4    12     5
 -0.0000000008     1     4    12     6
 0.0006268757     1     4    12     9
 0.0000000004     1     4    12    12
 -0.0006354399     1     4    12    13
 -0.0000000005     1     4    13     5
 0.0023738752     1     4    13     6
 0.0005889841     1     4    13     8
 0.0000000001     1     4    13     9
 -0.0006328415     1     4    13    12
 0.0000000002     1     4    13    13
 0.0000105034     1     5     2     6
 0.0002340868     1     5     2     8
 -0.0000115194     1     5     2    12
 0.0000000006     1     5     3     8
 0.0001819515     1     5     3     9
 -0.0000000003     1     5     3    12
 0.0009161414     1     5     3    13
 0.0000355654     1     5     4     6
 0.0022732408     1     5     4     8
 -0.0000000001     1     5     4     9
 0.0010292626     1     5     4    12
 -0.0000000003     1     5     4    13
 -0.4779881209     1     5     5     1
 0.0000000048     1     5     5     2
 0.0109760086     1     5     5     3
 -0.0000000024     1     5     5     4
 -0.0034365489     1     5     5     7
 -0.0020784277     1     5     5    10
 0.0000000006     1     5     5    11
 0.0000000647     1     5     6     1
 -0.1454486520     1     5     6     2
 -0.0000000024     1     5     6     3
 0.0064434761     1     5     6     4
 -0.0000000007     1     5     6     7
 0.0000000002     1     5     6    10
 -0.0011467532     1     5     6    11
 0.0000000004     1     5     7     8
 -0.0010704181     1     5     7     9
 0.0000000003     1     5     7    12
 -0.0011320771     1     5     7    13
 0.0000000349     1     5     8     1
 -0.0796262192     1     5     8     2
 -0.0000000009     1     5     8     3
 0.0038125289     1     5     8     4
 -0.0000000003     1     5     8     7
 0.0000000001     1     5     8    10
 -0.0009518765     1     5     8    11
 0.0330810203     1     5     9     1
 0.0000000009     1     5     9     2
 -0.0018642806     1     5     9     3
 0.0000000001     1     5     9     4
 0.0006937699     1     5     9     7
 0.0005760805     1     5     9    10
 -0.0000000002     1     5     9    11
 0.0000000001     1     5    10     8
 -0.0000793203     1     5    10     9
 -0.0000000003     1     5    10    12
 0.0011215371     1     5    10    13
 -0.0000052984     1     5    11     6
 -0.0000524152     1     5    11     8
 0.0009329432     1     5    11    12
 -0.0000000001     1     5    11    13
 -0.0000000236     1     5    12     1
 0.0385059930     1     5    12     2
 0.0000000010     1     5    12     3
 -0.0022868477     1     5    12     4
 0.0000000001     1     5    12     7
 -0.0000000004     1     5    12    10
 0.0016309940     1     5    12    11
 0.0791218615     1     5    13     1
 0.0000000019     1     5    13     2
 -0.0035655414     1     5    13     3
 0.0000000005     1     5    13     4
 0.0006258449     1     5    13     7
 0.0020869187     1     5    13    10
 -0.0000000003     1     5    13    11
 -0.0000105034     1     6     2     5
 0.0002107634     1     6     2     9
 -0.0000068162     1     6     2    13
 0.0002586870     1     6     3     8
 0.0000000006     1     6     3     9
 0.0009320892     1     6     3    12
 -0.0000000001     1     6     3    13
 -0.0000355654     1     6     4     5
 0.0021768737     1     6     4     9
 -0.0000000003     1     6     4    12
 0.0010891638     1     6     4    13
 0.0000000647     1     6     5     1
 -0.1454591554     1     6     5     2
 -0.0000000024     1     6     5     3
 0.0064079107     1     6     5     4
 -0.0000000007     1     6     5     7
 0.0000000002     1     6     5    10
 -0.0011414548     1     6     5    11
 -0.4786764468     1     6     6     1
 -0.0000000045     1     6     6     2
 0.0109044426     1     6     6     3
 -0.0000000020     1     6     6     4
 -0.0034989763     1     6     6     7
 -0.0020747477     1     6     6    10
 0.0000000005     1     6     6    11
 -0.0012921946     1     6     7     8
 0.0000000004     1     6     7     9
 -0.0010534907     1     6     7    12
 0.0000000001     1     6     7    13
 0.0360375933     1     6     8     1
 -0.0000000012     1     6     8     2
 -0.0019174200     1     6     8     3
 0.0000000003     1     6     8     4
 0.0007943905     1     6     8     7
 0.0006390086     1     6     8    10
 -0.0000000002     1     6     8    11
 0.0000000319     1     6     9     1
 -0.0704112407     1     6     9     2
 -0.0000000008     1     6     9     3
 0.0033569210     1     6     9     4
 -0.0000000002     1     6     9     7
 -0.0007033638     1     6     9    11
 -0.0000539312     1     6    10     8
 0.0011308503     1     6    10    12
 0.0000052984     1     6    11     5
 0.0000092583     1     6    11     9
 -0.0000000002     1     6    11    12
 0.0009278813     1     6    11    13
 0.0777579746     1     6    12     1
 -0.0000000020     1     6    12     2
 -0.0034794283     1     6    12     3
 0.0000000008     1     6    12     4
 0.0006256013     1     6    12     7
 0.0020649294     1     6    12    10
 -0.0000000005     1     6    12    11
 -0.0000000114     1     6    13     1
 0.0399263792     1     6    13     2
 0.0000000005     1     6    13     3
 -0.0023738752     1     6    13     4
 0.0000000003     1     6    13     7
 -0.0000000001     1     6    13    10
 0.0016671648     1     6    13    11
 -0.0000000029     1     7     2     1
 0.0129791188     1     7     2     2
 -0.0003426712     1     7     2     4
 0.0001060833     1     7     2    11
 -0.1111591374     1     7     3     1
 0.0000000001     1     7     3     2
 0.0096149569     1     7     3     3
 -0.0000000003     1     7     3     4
 -0.0023607754     1     7     3    10
 0.0000000002     1     7     3    11
 -0.0000000587     1     7     4     1
 0.1314459747     1     7     4     2
 0.0000000024     1     7     4     3
 -0.0025814849     1     7     4     4
 -0.0000000004     1     7     4    10
 0.0004460377     1     7     4    11
 0.0034365489     1     7     5     5
 0.0000000007     1     7     5     6
 0.0000000007     1     7     5     8
 -0.0017641880     1     7     5     9
 0.0000000002     1     7     5    12
 -0.0017579220     1     7     5    13
 0.0000000007     1     7     6     5
 0.0034989763     1     7     6     6
 -0.0020865851     1     7     6     8
 0.0000000006     1     7     6     9
 -0.0016790920     1     7     6    12
 -0.0000000002     1     7     6    13
 -0.5611688460     1     7     7     1
 0.0178898425     1     7     7     3
 -0.0000000037     1     7     7     4
 -0.0042904232     1     7     7    10
 0.0000000009     1     7     7    11
 0.0000000003     1     7     8     5
 -0.0007943905     1     7     8     6
 0.0029042325     1     7     8     8
 -0.0000000007     1     7     8     9
 -0.0000303822     1     7     8    12
 0.0000000002     1     7     8    13
 -0.0006937699     1     7     9     5
 0.0000000002     1     7     9     6
 -0.0000000006     1     7     9     8
 0.0021926341     1     7     9     9
 0.0000000002     1     7     9    12
 -0.0000548603     1     7     9    13
 -0.0566006085     1     7    10     1
 0.0028092157     1     7    10     3
 -0.0000000007     1     7    10     4
 -0.0004177326     1     7    10    10
 0.0000000005     1     7    10    11
 0.0000000075     1     7    11     1
 -0.0172912320     1     7    11     2
 -0.0000000005     1     7    11     3
 0.0007634606     1     7    11     4
 0.0000000004     1     7    11    10
 -0.0004895059     1     7    11    11
 -0.0000000001     1     7    12     5
 -0.0006256013     1     7    12     6
 0.0002311097     1     7    12     8
 -0.0000000001     1     7    12     9
 0.0002975224     1     7    12    12
 0.0000000003     1     7    12    13
 -0.0006258449     1     7    13     5
 -0.0000000003     1     7    13     6
 -0.0000000001     1     7    13     8
 0.0001534853     1     7    13     9
 0.0000000003     1     7    13    12
 0.0003096415     1     7    13    13
 -0.0002340868     1     8     2     5
 -0.0000083597     1     8     2     9
 0.0001038895     1     8     2    13
 -0.0000000006     1     8     3     5
 -0.0002586870     1     8     3     6
 -0.0002329757     1     8     3    12
 0.0000000001     1     8     3    13
 -0.0022732408     1     8     4     5
 -0.0003173550     1     8     4     9
 -0.0000000001     1     8     4    12
 0.0011863495     1     8     4    13
 0.0000000349     1     8     5     1
 -0.0798603060     1     8     5     2
 -0.0000000015     1     8     5     3
 0.0015392881     1     8     5     4
 -0.0000000007     1     8     5     7
 -0.0008994613     1     8     5    11
 0.0360375933     1     8     6     1
 -0.0000000012     1     8     6     2
 -0.0021761070     1     8     6     3
 0.0000000003     1     8     6     4
 0.0020865851     1     8     6     7
 0.0006929398     1     8     6    10
 -0.0000000002     1     8     6    11
 -0.0000000004     1     8     7     5
 0.0012921946     1     8     7     6
 -0.0000000001     1     8     7     9
 -0.0002614919     1     8     7    12
 0.0000000003     1     8     7    13
 -0.4870331990     1     8     8     1
 -0.0000000004     1     8     8     2
 0.0104317993     1     8     8     3
 -0.0000000023     1     8     8     4
 -0.0029042325     1     8     8     7
 -0.0026345923     1     8     8    10
 0.0000000007     1     8     8    11
 -0.0000000564     1     8     9     1
 0.1269849683     1     8     9     2
 0.0000000024     1     8     9     3
 -0.0066105197     1     8     9     4
 0.0000000006     1     8     9     7
 -0.0000000002     1     8     9    10
 0.0025012550     1     8     9    11
 -0.0000000001     1     8    10     5
 0.0000539312     1     8    10     6
 -0.0006610060     1     8    10    12
 -0.0000000001     1     8    10    13
 0.0000524152     1     8    11     5
 0.0000040522     1     8    11     9
 -0.0000000001     1     8    11    12
 -0.0003633305     1     8    11    13
 -0.0055409321     1     8    12     1
 -0.0000000003     1     8    12     2
 0.0003640667     1     8    12     3
 -0.0002311097     1     8    12     7
 -0.0007941277     1     8    12    10
 -0.0000000001     1     8    12    11
 -0.0000000027     1     8    13     1
 0.0052373309     1     8    13     2
 0.0000000004     1     8    13     3
 -0.0005889841     1     8    13     4
 0.0000000001     1     8    13     7
 -0.0000000002     1     8    13    10
 0.0000686260     1     8    13    11
 -0.0002107634     1     9     2     6
 0.0000083597     1     9     2     8
 0.0000897767     1     9     2    12
 -0.0001819515     1     9     3     5
 -0.0000000006     1     9     3     6
 0.0000000001     1     9     3    12
 -0.0001565726     1     9     3    13
 0.0000000001     1     9     4     5
 -0.0021768737     1     9     4     6
 0.0003173550     1     9     4     8
 0.0011024646     1     9     4    12
 0.0330810203     1     9     5     1
 0.0000000009     1     9     5     2
 -0.0020462321     1     9     5     3
 0.0000000002     1     9     5     4
 0.0017641880     1     9     5     7
 0.0006554008     1     9     5    10
 -0.0000000002     1     9     5    11
 0.0000000319     1     9     6     1
 -0.0706220041     1     9     6     2
 -0.0000000014     1     9     6     3
 0.0011800473     1     9     6     4
 -0.0000000006     1     9     6     7
 -0.0007126221     1     9     6    11
 0.0010704181     1     9     7     5
 -0.0000000004     1     9     7     6
 0.0000000001     1     9     7     8
 0.0000000003     1     9     7    12
 -0.0002083456     1     9     7    13
 -0.0000000564     1     9     8     1
 0.1269933280     1     9     8     2
 0.0000000024     1     9     8     3
 -0.0062931647     1     9     8     4
 0.0000000007     1     9     8     7
 -0.0000000002     1     9     8    10
 0.0024972028     1     9     8    11
 -0.4409993034     1     9     9     1
 0.0000000003     1     9     9     2
 0.0083740576     1     9     9     3
 -0.0000000019     1     9     9     4
 -0.0021926341     1     9     9     7
 -0.0019473294     1     9     9    10
 0.0000000006     1     9     9    11
 0.0000793203     1     9    10     5
 -0.0000000001     1     9    10    12
 -0.0005440941     1     9    10    13
 -0.0000092583     1     9    11     6
 -0.0000040522     1     9    11     8
 -0.0002701031     1     9    11    12
 -0.0000000001     1     9    11    13
 -0.0000000008     1     9    12     1
 0.0019126099     1     9    12     2
 0.0000000003     1     9    12     3
 -0.0006268757     1     9    12     4
 0.0000000001     1     9    12     7
 -0.0000000002     1     9    12    10
 0.0001227473     1     9    12    11
 -0.0011134825     1     9    13     1
 0.0000000002     1     9    13     2
 0.0002717877     1     9    13     3
 -0.0000000001     1     9    13     4
 -0.0001534853     1     9    13     7
 -0.0006360245     1     9    13    10
 -0.0000000001     1     9    13    11
 -0.0000000006     1    10     2     1
 0.0025236510     1    10     2     2
 -0.0000647930     1    10     2     4
 0.0000200921     1    10     2    11
 0.0412941433     1    10     3     1
 -0.0000000002     1    10     3     2
 0.0025717212     1    10     3     3
 0.0000000001     1    10     3     4
 0.0023607754     1    10     3     7
 -0.0000000235     1    10     4     1
 0.0522445182     1    10     4     2
 0.0000000006     1    10     4     3
 -0.0001252589     1    10     4     4
 0.0000000004     1    10     4     7
 -0.0000645351     1    10     4    11
 0.0020784277     1    10     5     5
 -0.0000000002     1    10     5     6
 -0.0006554008     1    10     5     9
 0.0000000001     1    10     5    12
 -0.0009653816     1    10     5    13
 -0.0000000002     1    10     6     5
 0.0020747477     1    10     6     6
 -0.0006929398     1    10     6     8
 -0.0009340791     1    10     6    12
 0.0000000001     1    10     6    13
 -0.0566006085     1    10     7     1
 0.0051699911     1    10     7     3
 -0.0000000003     1    10     7     4
 0.0042904232     1    10     7     7
 0.0000000001     1    10     7    11
 -0.0000000001     1    10     8     5
 -0.0006390086     1    10     8     6
 0.0026345923     1    10     8     8
 0.0000000002     1    10     8     9
 0.0001331217     1    10     8    12
 0.0000000001     1    10     8    13
 -0.0005760805     1    10     9     5
 0.0000000002     1    10     9     8
 0.0019473294     1    10     9     9
 0.0000000001     1    10     9    12
 0.0000919304     1    10     9    13
 -0.2191736693     1    10    10     1
 0.0000000002     1    10    10     2
 0.0007907878     1    10    10     3
 -0.0000000001     1    10    10     4
 0.0004177326     1    10    10     7
 0.0000000001     1    10    10    11
 0.0000000169     1    10    11     1
 -0.0381064008     1    10    11     2
 -0.0000000002     1    10    11     3
 -0.0005742482     1    10    11     4
 -0.0000000004     1    10    11     7
 0.0001176383     1    10    11    11
 0.0000000004     1    10    12     5
 -0.0020649294     1    10    12     6
 0.0007941277     1    10    12     8
 0.0000000002     1    10    12     9
 0.0008351724     1    10    12    12
 -0.0000000001     1    10    12    13
 -0.0020869187     1    10    13     5
 0.0000000001     1    10    13     6
 0.0000000002     1    10    13     8
 0.0006360245     1    10    13     9
 -0.0000000001     1    10    13    12
 0.0008581462     1    10    13    13
 -0.0015492791     1    11     2     1
 -0.0000000004     1    11     2     2
 -0.0000377927     1    11     2     3
 -0.0001060833     1    11     2     7
 -0.0000200921     1    11     2    10
 -0.0000000193     1    11     3     1
 0.0437762843     1    11     3     2
 -0.0000000003     1    11     3     3
 -0.0004550966     1    11     3     4
 -0.0000000002     1    11     3     7
 0.0719469549     1    11     4     1
 0.0000000002     1    11     4     2
 -0.0016133965     1    11     4     3
 0.0000000001     1    11     4     4
 -0.0004460377     1    11     4     7
 0.0000645351     1    11     4    10
 -0.0000000006     1    11     5     5
 0.0011414548     1    11     5     6
 0.0008994613     1    11     5     8
 0.0000000002     1    11     5     9
 -0.0006980508     1    11     5    12
 0.0000000002     1    11     5    13
 0.0011467532     1    11     6     5
 -0.0000000005     1    11     6     6
 0.0000000002     1    11     6     8
 0.0007126221     1    11     6     9
 0.0000000003     1    11     6    12
 -0.0007392835     1    11     6    13
 0.0000000075     1    11     7     1
 -0.0173973153     1    11     7     2
 -0.0000000007     1    11     7     3
 0.0003174229     1    11     7     4
 -0.0000000009     1    11     7     7
 -0.0000000001     1    11     7    10
 0.0009518765     1    11     8     5
 0.0000000002     1    11     8     6
 -0.0000000007     1    11     8     8
 -0.0024972028     1    11     8     9
 -0.0004319565     1    11     8    13
 0.0000000002     1    11     9     5
 0.0007033638     1    11     9     6
 -0.0025012550     1    11     9     8
 -0.0000000006     1    11     9     9
 -0.0003928504     1    11     9    12
 0.0000000169     1    11    10     1
 -0.0381264929     1    11    10     2
 -0.0000000002     1    11    10     3
 -0.0005097131     1    11    10     4
 -0.0000000005     1    11    10     7
 -0.0000000001     1    11    10    10
 -0.2134819099     1    11    11     1
 -0.0000000002     1    11    11     2
 0.0004933585     1    11    11     3
 0.0004895059     1    11    11     7
 -0.0001176383     1    11    11    10
 -0.0016309940     1    11    12     5
 0.0000000005     1    11    12     6
 0.0000000001     1    11    12     8
 -0.0001227473     1    11    12     9
 -0.0000000002     1    11    12    12
 0.0005865545     1    11    12    13
 0.0000000003     1    11    13     5
 -0.0016671648     1    11    13     6
 -0.0000686260     1    11    13     8
 0.0000000001     1    11    13     9
 0.0005799976     1    11    13    12
 0.0000115194     1    12     2     5
 -0.0000897767     1    12     2     9
 -0.0000002105     1    12     2    13
 0.0000000003     1    12     3     5
 -0.0009320892     1    12     3     6
 0.0002329757     1    12     3     8
 -0.0000000001     1    12     3     9
 -0.0010292626     1    12     4     5
 0.0000000003     1    12     4     6
 0.0000000001     1    12     4     8
 -0.0011024646     1    12     4     9
 -0.0000025984     1    12     4    13
 -0.0000000236     1    12     5     1
 0.0385175124     1    12     5     2
 0.0000000013     1    12     5     3
 -0.0033161103     1    12     5     4
 -0.0000000002     1    12     5     7
 -0.0000000001     1    12     5    10
 0.0006980508     1    12     5    11
 0.0777579746     1    12     6     1
 -0.0000000020     1    12     6     2
 -0.0044115175     1    12     6     3
 0.0000000011     1    12     6     4
 0.0016790920     1    12     6     7
 0.0009340791     1    12     6    10
 -0.0000000003     1    12     6    11
 -0.0000000003     1    12     7     5
 0.0010534907     1    12     7     6
 0.0002614919     1    12     7     8
 -0.0000000003     1    12     7     9
 -0.0055409321     1    12     8     1
 -0.0000000003     1    12     8     2
 0.0005970424     1    12     8     3
 0.0000000001     1    12     8     4
 0.0000303822     1    12     8     7
 -0.0001331217     1    12     8    10
 -0.0000000008     1    12     9     1
 0.0018228332     1    12     9     2
 0.0000000002     1    12     9     3
 -0.0017293403     1    12     9     4
 -0.0000000002     1    12     9     7
 -0.0000000001     1    12     9    10