&FCI NORB= 14,NELEC= 10,MS2=0,
 ORBSYM=1,1,1,1,1,1,1,1,1,1,1,1,1,1
 ISYM=1,
&END
 1.0020242314     1     1     2     2
 -0.0546381935     1     1     2     3
 0.0537262941     1     1     2     5
 -0.0829199345     1     1     2     6
 0.0966074773     1     1     2     7
 0.0160781592     1     1     2     8
 0.0642175193     1     1     2     9
 0.0390356146     1     1     2    10
 0.0579018198     1     1     2    12
 -0.0916940987     1     1     2    14
 -0.0546381935     1     1     3     2
 0.9016461090     1     1     3     3
 -0.0727699012     1     1     3     5
 0.0668940123     1     1     3     6
 0.1199376972     1     1     3     7
 -0.0130253053     1     1     3     8
 -0.0089928956     1     1     3     9
 0.2326656774     1     1     3    10
 -0.0471752783     1     1     3    12
 -0.0617120449     1     1     3    14
 1.0148249387     1     1     4     4
 0.1998905826     1     1     4    11
 -0.2163681543     1     1     4    13
 0.0537262941     1     1     5     2
 -0.0727699012     1     1     5     3
 0.7463299314     1     1     5     5
 0.2761724220     1     1     5     6
 0.0465968657     1     1     5     7
 -0.0626216080     1     1     5     8
 0.0422119896     1     1     5     9
 -0.1042487214     1     1     5    10
 -0.0636518120     1     1     5    12
 -0.1904076520     1     1     5    14
 -0.0829199345     1     1     6     2
 0.0668940123     1     1     6     3
 0.2761724220     1     1     6     5
 0.5025142311     1     1     6     6
 0.0293679441     1     1     6     7
 -0.1137318879     1     1     6     8
 0.0067268325     1     1     6     9
 -0.0335538604     1     1     6    10
 -0.0933564776     1     1     6    12
 -0.1421083874     1     1     6    14
 0.0966074773     1     1     7     2
 0.1199376972     1     1     7     3
 0.0465968657     1     1     7     5
 0.0293679441     1     1     7     6
 0.3118911739     1     1     7     7
 -0.0280402670     1     1     7     8
 0.0446560955     1     1     7     9
 0.1070280153     1     1     7    10
 -0.0000576848     1     1     7    12
 -0.1076874371     1     1     7    14
 0.0160781592     1     1     8     2
 -0.0130253053     1     1     8     3
 -0.0626216080     1     1     8     5
 -0.1137318879     1     1     8     6
 -0.0280402670     1     1     8     7
 0.2544808911     1     1     8     8
 -0.0096631925     1     1     8     9
 0.0120973959     1     1     8    10
 0.0103040739     1     1     8    12
 0.0305276498     1     1     8    14
 0.0642175193     1     1     9     2
 -0.0089928956     1     1     9     3
 0.0422119896     1     1     9     5
 0.0067268325     1     1     9     6
 0.0446560955     1     1     9     7
 -0.0096631925     1     1     9     8
 0.3471722619     1     1     9     9
 0.0236161776     1     1     9    10
 0.0164597163     1     1     9    12
 -0.0526419585     1     1     9    14
 0.0390356146     1     1    10     2
 0.2326656774     1     1    10     3
 -0.1042487214     1     1    10     5
 -0.0335538604     1     1    10     6
 0.1070280153     1     1    10     7
 0.0120973959     1     1    10     8
 0.0236161776     1     1    10     9
 0.4994957640     1     1    10    10
 0.0110203668     1     1    10    12
 0.0023636147     1     1    10    14
 0.1998905826     1     1    11     4
 0.3855490501     1     1    11    11
 -0.1142998269     1     1    11    13
 0.0579018198     1     1    12     2
 -0.0471752783     1     1    12     3
 -0.0636518120     1     1    12     5
 -0.0933564776     1     1    12     6
 -0.0000576848     1     1    12     7
 0.0103040739     1     1    12     8
 0.0164597163     1     1    12     9
 0.0110203668     1     1    12    10
 0.3516591330     1     1    12    12
 0.0531377944     1     1    12    14
 -0.2163681543     1     1    13     4
 -0.1142998269     1     1    13    11
 0.4440717236     1     1    13    13
 -0.0916940987     1     1    14     2
 -0.0617120449     1     1    14     3
 -0.1904076520     1     1    14     5
 -0.1421083874     1     1    14     6
 -0.1076874371     1     1    14     7
 0.0305276498     1     1    14     8
 -0.0526419585     1     1    14     9
 0.0023636147     1     1    14    10
 0.0531377944     1     1    14    12
 0.4967026707     1     1    14    14
 -1.0020242314     1     2     2     1
 -0.0062302758     1     2     2     3
 0.0008518768     1     2     2     5
 -0.0006143884     1     2     2     6
 -0.0020024540     1     2     2     7
 0.0001929933     1     2     2     8
 -0.0002071437     1     2     2     9
 -0.0048008172     1     2     2    10
 0.0005981486     1     2     2    12
 0.0015387238     1     2     2    14
 0.0546381935     1     2     3     1
 -0.0339219839     1     2     3     3
 0.0042333526     1     2     3     5
 -0.0031945932     1     2     3     6
 -0.0096802758     1     2     3     7
 0.0010877820     1     2     3     8
 -0.0016510227     1     2     3     9
 -0.0208107362     1     2     3    10
 0.0025683982     1     2     3    12
 0.0070385265     1     2     3    14
 -0.0434988231     1     2     4     4
 -0.0163139827     1     2     4    11
 0.0190374424     1     2     4    13
 -0.0537262941     1     2     5     1
 0.0036861994     1     2     5     3
 -0.0261474532     1     2     5     5
 -0.0171503103     1     2     5     6
 -0.0022108736     1     2     5     7
 0.0054062995     1     2     5     8
 -0.0026467478     1     2     5     9
 0.0081824514     1     2     5    10
 0.0064614919     1     2     5    12
 0.0151580668     1     2     5    14
 0.0829199345     1     2     6     1
 -0.0021932286     1     2     6     3
 -0.0148161183     1     2     6     5
 -0.0132400779     1     2     6     6
 -0.0031206918     1     2     6     7
 0.0042290651     1     2     6     8
 -0.0019454689     1     2     6     9
 0.0025913275     1     2     6    10
 0.0050979902     1     2     6    12
 0.0119644189     1     2     6    14
 -0.0966074773     1     2     7     1
 -0.0082223705     1     2     7     3
 -0.0016653030     1     2     7     5
 -0.0032381970     1     2     7     6
 -0.0030324274     1     2     7     7
 0.0010631808     1     2     7     8
 -0.0008087015     1     2     7     9
 -0.0051180067     1     2     7    10
 0.0014936611     1     2     7    12
 0.0041732417     1     2     7    14
 -0.0160781592     1     2     8     1
 0.0007074576     1     2     8     3
 0.0044393483     1     2     8     5
 0.0040387874     1     2     8     6
 0.0009768418     1     2     8     7
 -0.0014280251     1     2     8     8
 0.0007068929     1     2     8     9
 -0.0008378392     1     2     8    10
 -0.0015480987     1     2     8    12
 -0.0036936867     1     2     8    14
 -0.0642175193     1     2     9     1
 -0.0013857521     1     2     9     3
 -0.0019430560     1     2     9     5
 -0.0016916796     1     2     9     6
 -0.0007593556     1     2     9     7
 0.0006541228     1     2     9     8
 -0.0005198271     1     2     9     9
 0.0001620189     1     2     9    10
 0.0005387364     1     2     9    12
 0.0016837183     1     2     9    14
 -0.0390356146     1     2    10     1
 -0.0154474850     1     2    10     3
 0.0064959984     1     2    10     5
 0.0018647759     1     2    10     6
 -0.0043033945     1     2    10     7
 -0.0006417537     1     2    10     8
 0.0003049706     1     2    10     9
 -0.0125026006     1     2    10    10
 0.0003740031     1     2    10    12
 0.0001637776     1     2    10    14
 -0.0123500846     1     2    11     4
 -0.0060464111     1     2    11    11
 0.0066459496     1     2    11    13
 -0.0579018198     1     2    12     1
 0.0016230078     1     2    12     3
 0.0046480194     1     2    12     5
 0.0043353284     1     2    12     6
 0.0011825604     1     2    12     7
 -0.0013724429     1     2    12     8
 0.0005008992     1     2    12     9
 0.0002115005     1     2    12    10
 -0.0018025811     1     2    12    12
 -0.0037527590     1     2    12    14
 0.0138024682     1     2    13     4
 0.0063372054     1     2    13    11
 -0.0071218141     1     2    13    13
 0.0916940987     1     2    14     1
 0.0055508961     1     2    14     3
 0.0109594010     1     2    14     5
 0.0104714282     1     2    14     6
 0.0037908940     1     2    14     7
 -0.0033825625     1     2    14     8
 0.0016578147     1     2    14     9
 0.0006383302     1     2    14    10
 -0.0039775878     1     2    14    12
 -0.0102941904     1     2    14    14
 0.0546381935     1     3     2     1
 0.0062302758     1     3     2     2
 0.0005481083     1     3     2     5
 -0.0008721888     1     3     2     6
 -0.0008002167     1     3     2     7
 0.0003298182     1     3     2     8
 -0.0001853367     1     3     2     9
 -0.0041333499     1     3     2    10
 0.0008007307     1     3     2    12
 0.0010215732     1     3     2    14
 -0.9016461090     1     3     3     1
 0.0339219839     1     3     3     2
 0.0026008939     1     3     3     5
 -0.0035962579     1     3     3     6
 0.0048232553     1     3     3     7
 0.0009627478     1     3     3     8
 0.0005229459     1     3     3     9
 0.0016500668     1     3     3    10
 0.0018192998     1     3     3    12
 -0.0055151559     1     3     3    14
 0.0118338751     1     3     4     4
 0.0048714329     1     3     4    11
 -0.0030749147     1     3     4    13
 0.0727699012     1     3     5     1
 -0.0036861994     1     3     5     2
 0.0065230278     1     3     5     5
 0.0062104308     1     3     5     6
 0.0004994263     1     3     5     7
 -0.0025794612     1     3     5     8
 -0.0004157667     1     3     5     9
 -0.0017209819     1     3     5    10
 -0.0002413044     1     3     5    12
 -0.0035346223     1     3     5    14
 -0.0668940123     1     3     6     1
 0.0021932286     1     3     6     2
 0.0044398815     1     3     6     5
 0.0025974367     1     3     6     6
 0.0004382972     1     3     6     7
 -0.0011526140     1     3     6     8
 0.0005788567     1     3     6     9
 -0.0014747995     1     3     6    10
 0.0000608819     1     3     6    12
 -0.0025312556     1     3     6    14
 -0.1199376972     1     3     7     1
 0.0082223705     1     3     7     2
 0.0014879191     1     3     7     5
 -0.0010723619     1     3     7     6
 0.0039767954     1     3     7     7
 0.0001943596     1     3     7     8
 0.0009466286     1     3     7     9
 0.0027084023     1     3     7    10
 0.0002472803     1     3     7    12
 -0.0027842433     1     3     7    14
 0.0130253053     1     3     8     1
 -0.0007074576     1     3     8     2
 -0.0013829857     1     3     8     5
 -0.0006437641     1     3     8     6
 -0.0001633868     1     3     8     7
 -0.0004146493     1     3     8     8
 0.0004050563     1     3     8     9
 -0.0001770039     1     3     8    10
 -0.0001502893     1     3     8    12
 0.0004635912     1     3     8    14
 0.0089928956     1     3     9     1
 0.0013857521     1     3     9     2
 0.0003064213     1     3     9     5
 0.0008384908     1     3     9     6
 0.0011852864     1     3     9     7
 0.0002474957     1     3     9     8
 0.0002628113     1     3     9     9
 0.0039297347     1     3     9    10
 -0.0007341849     1     3     9    12
 -0.0027493924     1     3     9    14
 -0.2326656774     1     3    10     1
 0.0154474850     1     3    10     2
 0.0001638397     1     3    10     5
 -0.0041070365     1     3    10     6
 0.0051752669     1     3    10     7
 0.0007291568     1     3    10     8
 0.0041833661     1     3    10     9
 0.0049366170     1     3    10    10
 0.0033972736     1     3    10    12
 -0.0040209957     1     3    10    14
 0.0032692134     1     3    11     4
 0.0005509101     1     3    11    11
 -0.0016947133     1     3    11    13
 0.0471752783     1     3    12     1
 -0.0016230078     1     3    12     2
 -0.0013045369     1     3    12     5
 -0.0010006166     1     3    12     6
 -0.0008487529     1     3    12     7
 0.0003839699     1     3    12     8
 -0.0008531313     1     3    12     9
 0.0025021156     1     3    12    10
 0.0002826728     1     3    12    12
 0.0026087953     1     3    12    14
 -0.0040431169     1     3    13     4
 -0.0028327101     1     3    13    11
 0.0043392589     1     3    13    13
 0.0617120449     1     3    14     1
 -0.0055508961     1     3    14     2
 -0.0037923271     1     3    14     5
 -0.0015372123     1     3    14     6
 -0.0023074581     1     3    14     7
 0.0005998341     1     3    14     8
 -0.0021641534     1     3    14     9
 -0.0010886650     1     3    14    10
 0.0008592791     1     3    14    12
 0.0048409532     1     3    14    14
 -0.0029695178     1     4     2    11
 0.0041469240     1     4     2    13
 0.0014057467     1     4     3    11
 0.0012627113     1     4     3    13
 -1.0148249387     1     4     4     1
 0.0434988231     1     4     4     2
 -0.0118338751     1     4     4     3
 0.0049098688     1     4     4     5
 -0.0065950767     1     4     4     6
 0.0050704453     1     4     4     7
 0.0020469589     1     4     4     8
 0.0067700949     1     4     4     9
 0.0003542559     1     4     4    10
 0.0064303692     1     4     4    12
 -0.0073220097     1     4     4    14
 0.0012931276     1     4     5    11
 0.0010317255     1     4     5    13
 -0.0002992387     1     4     6    11
 0.0007607848     1     4     6    13
 0.0010161762     1     4     7    11
 -0.0013050473     1     4     7    13
 -0.0006814298     1     4     8    11
 0.0002996454     1     4     8    13
 -0.0003826016     1     4     9    11
 0.0007340574     1     4     9    13
 -0.0005007682     1     4    10    11
 0.0006894390     1     4    10    13
 -0.1998905826     1     4    11     1
 0.0123500846     1     4    11     2
 -0.0032692134     1     4    11     3
 0.0020180236     1     4    11     5
 -0.0035811276     1     4    11     6
 0.0026935627     1     4    11     7
 0.0003550508     1     4    11     8
 0.0021029979     1     4    11     9
 -0.0003488350     1     4    11    10
 0.0024912750     1     4    11    12
 -0.0021687460     1     4    11    14
 -0.0002770307     1     4    12    11
 0.0003715309     1     4    12    13
 0.2163681543     1     4    13     1
 -0.0138024682     1     4    13     2
 0.0040431169     1     4    13     3
 -0.0015007463     1     4    13     5
 0.0029656814     1     4    13     6
 -0.0042859634     1     4    13     7
 -0.0003841884     1     4    13     8
 -0.0024211606     1     4    13     9
 -0.0006619711     1     4    13    10
 -0.0021145348     1     4    13    12
 0.0044020090     1     4    13    14
 -0.0001105743     1     4    14    11
 0.0002221355     1     4    14    13
 -0.0537262941     1     5     2     1
 -0.0008518768     1     5     2     2
 -0.0005481083     1     5     2     3
 -0.0011871010     1     5     2     6
 -0.0004213622     1     5     2     7
 0.0006044075     1     5     2     8
 -0.0005390179     1     5     2     9
 0.0011639484     1     5     2    10
 0.0014282402     1     5     2    12
 0.0032911318     1     5     2    14
 0.0727699012     1     5     3     1
 -0.0042333526     1     5     3     2
 -0.0026008939     1     5     3     3
 0.0014909711     1     5     3     6
 -0.0010898669     1     5     3     7
 -0.0011012933     1     5     3     8
 -0.0006583436     1     5     3     9
 -0.0019244796     1     5     3    10
 0.0011161715     1     5     3    12
 0.0005345805     1     5     3    14
 -0.0049098688     1     5     4     4
 -0.0009411740     1     5     4    11
 0.0026348356     1     5     4    13
 -0.7463299314     1     5     5     1
 0.0261474532     1     5     5     2
 -0.0065230278     1     5     5     3
 -0.0030366541     1     5     5     6
 0.0033471392     1     5     5     7
 -0.0001616625     1     5     5     8
 0.0042380347     1     5     5     9
 0.0014216226     1     5     5    10
 0.0024043846     1     5     5    12
 -0.0022276427     1     5     5    14
 -0.2761724220     1     5     6     1
 0.0148161183     1     5     6     2
 -0.0044398815     1     5     6     3
 -0.0060085129     1     5     6     6
 0.0013311905     1     5     6     7
 0.0014619209     1     5     6     8
 0.0023621914     1     5     6     9
 0.0009472807     1     5     6    10
 0.0030923258     1     5     6    12
 0.0005746989     1     5     6    14
 -0.0465968657     1     5     7     1
 0.0016653030     1     5     7     2
 -0.0014879191     1     5     7     3
 -0.0007649628     1     5     7     6
 -0.0002139616     1     5     7     7
 0.0002811585     1     5     7     8
 0.0004273622     1     5     7     9
 -0.0012037512     1     5     7    10
 0.0002950670     1     5     7    12
 -0.0004925892     1     5     7    14
 0.0626216080     1     5     8     1
 -0.0044393483     1     5     8     2
 0.0013829857     1     5     8     3
 0.0023726277     1     5     8     6
 -0.0000494980     1     5     8     7
 -0.0021744817     1     5     8     8
 -0.0009365446     1     5     8     9
 0.0002105657     1     5     8    10
 -0.0014696827     1     5     8    12
 -0.0004833380     1     5     8    14
 -0.0422119896     1     5     9     1
 0.0019430560     1     5     9     2
 -0.0003064213     1     5     9     3
 -0.0006694038     1     5     9     6
 0.0005490111     1     5     9     7
 -0.0001119911     1     5     9     8
 -0.0008249695     1     5     9     9
 0.0006848772     1     5     9    10
 0.0016988749     1     5     9    12
 0.0000685269     1     5     9    14
 0.1042487214     1     5    10     1
 -0.0064959984     1     5    10     2
 -0.0001638397     1     5    10     3
 0.0017040330     1     5    10     6
 -0.0023075641     1     5    10     7
 -0.0001247163     1     5    10     8
 -0.0011060226     1     5    10     9
 -0.0012839000     1     5    10    10
 -0.0012145900     1     5    10    12
 0.0027319222     1     5    10    14
 -0.0020180236     1     5    11     4
 -0.0030124958     1     5    11    11
 0.0005274469     1     5    11    13
 0.0636518120     1     5    12     1
 -0.0046480194     1     5    12     2
 0.0013045369     1     5    12     3
 0.0018615305     1     5    12     6
 -0.0013171931     1     5    12     7
 -0.0007080493     1     5    12     8
 0.0003776198     1     5    12     9
 -0.0019107961     1     5    12    10
 -0.0015049408     1     5    12    12
 0.0005339943     1     5    12    14
 0.0015007463     1     5    13     4
 -0.0004445478     1     5    13    11
 -0.0010569236     1     5    13    13
 0.1904076520     1     5    14     1
 -0.0109594010     1     5    14     2
 0.0037923271     1     5    14     3
 0.0034284870     1     5    14     6
 -0.0023879353     1     5    14     7
 -0.0004948252     1     5    14     8
 -0.0021068266     1     5    14     9
 0.0010384311     1     5    14    10
 -0.0019308722     1     5    14    12
 0.0030899551     1     5    14    14
 0.0829199345     1     6     2     1
 0.0006143884     1     6     2     2
 0.0008721888     1     6     2     3
 0.0011871010     1     6     2     5
 0.0001304978     1     6     2     7
 0.0001734670     1     6     2     8
 -0.0002403136     1     6     2     9
 0.0007501379     1     6     2    10
 0.0007475651     1     6     2    12
 0.0014252544     1     6     2    14
 -0.0668940123     1     6     3     1
 0.0031945932     1     6     3     2
 0.0035962579     1     6     3     3
 -0.0014909711     1     6     3     5
 0.0015528499     1     6     3     7
 -0.0005168924     1     6     3     8
 -0.0002612582     1     6     3     9
 0.0027084448     1     6     3    10
 0.0010975845     1     6     3    12
 -0.0010033391     1     6     3    14
 0.0065950767     1     6     4     4
 0.0033399083     1     6     4    11
 -0.0022139952     1     6     4    13
 -0.2761724220     1     6     5     1
 0.0171503103     1     6     5     2
 -0.0062104308     1     6     5     3
 0.0030366541     1     6     5     5
 0.0021354374     1     6     5     7
 -0.0009532337     1     6     5     8
 0.0030928458     1     6     5     9
 -0.0007921103     1     6     5    10
 0.0012760992     1     6     5    12
 -0.0028964066     1     6     5    14
 -0.5025142311     1     6     6     1
 0.0132400779     1     6     6     2
 -0.0025974367     1     6     6     3
 0.0060085129     1     6     6     5
 0.0022316157     1     6     6     7
 -0.0003915265     1     6     6     8
 0.0025339481     1     6     6     9
 -0.0001603514     1     6     6    10
 0.0008304127     1     6     6    12
 -0.0039207263     1     6     6    14
 -0.0293679441     1     6     7     1
 0.0032381970     1     6     7     2
 0.0010723619     1     6     7     3
 0.0007649628     1     6     7     5
 0.0013772741     1     6     7     7
 -0.0000071432     1     6     7     8
 0.0006883944     1     6     7     9
 0.0009323589     1     6     7    10
 -0.0000853739     1     6     7    12
 -0.0019047666     1     6     7    14
 0.1137318879     1     6     8     1
 -0.0040387874     1     6     8     2
 0.0006437641     1     6     8     3
 -0.0023726277     1     6     8     5
 -0.0005598767     1     6     8     7
 -0.0010859820     1     6     8     8
 -0.0008972886     1     6     8     9
 0.0003241371     1     6     8    10
 -0.0004892652     1     6     8    12
 0.0013229989     1     6     8    14
 -0.0067268325     1     6     9     1
 0.0016916796     1     6     9     2
 -0.0008384908     1     6     9     3
 0.0006694038     1     6     9     5
 0.0004868549     1     6     9     7
 -0.0001507642     1     6     9     8
 -0.0004955228     1     6     9     9
 0.0006039940     1     6     9    10
 0.0009986048     1     6     9    12
 -0.0006309514     1     6     9    14
 0.0335538604     1     6    10     1
 -0.0018647759     1     6    10     2
 0.0041070365     1     6    10     3
 -0.0017040330     1     6    10     5
 0.0004041048     1     6    10     7
 0.0001945935     1     6    10     8
 -0.0000579214     1     6    10     9
 0.0030507731     1     6    10    10
 -0.0003130673     1     6    10    12
 0.0011025915     1     6    10    14
 0.0035811276     1     6    11     4
 -0.0001661854     1     6    11    11
 -0.0020229447     1     6    11    13
 0.0933564776     1     6    12     1
 -0.0043353284     1     6    12     2
 0.0010006166     1     6    12     3
 -0.0018615305     1     6    12     5
 -0.0013747290     1     6    12     7
 -0.0000601245     1     6    12     8
 -0.0000980267     1     6    12     9
 -0.0006411100     1     6    12    10
 -0.0006127498     1     6    12    12
 0.0019511158     1     6    12    14
 -0.0029656814     1     6    13     4
 -0.0022002657     1     6    13    11
 0.0015810400     1     6    13    13
 0.1421083874     1     6    14     1
 -0.0104714282     1     6    14     2
 0.0015372123     1     6    14     3
 -0.0034284870     1     6    14     5
 -0.0031080354     1     6    14     7
 0.0004693698     1     6    14     8
 -0.0023575935     1     6    14     9
 0.0002244679     1     6    14    10
 -0.0004295243     1     6    14    12
 0.0054561471     1     6    14    14
 -0.0966074773     1     7     2     1
 0.0020024540     1     7     2     2
 0.0008002167     1     7     2     3
 0.0004213622     1     7     2     5
 -0.0001304978     1     7     2     6
 0.0000815024     1     7     2     8
 -0.0000513539     1     7     2     9
 -0.0008197337     1     7     2    10
 0.0003051932     1     7     2    12
 0.0003705173     1     7     2    14
 -0.1199376972     1     7     3     1
 0.0096802758     1     7     3     2
 -0.0048232553     1     7     3     3
 0.0010898669     1     7     3     5
 -0.0015528499     1     7     3     6
 0.0003694109     1     7     3     8
 -0.0002483522     1     7     3     9
 -0.0025409642     1     7     3    10
 0.0011235228     1     7     3    12
 -0.0004694415     1     7     3    14
 -0.0050704453     1     7     4     4
 -0.0016747388     1     7     4    11
 0.0030063662     1     7     4    13
 -0.0465968657     1     7     5     1
 0.0022108736     1     7     5     2
 -0.0004994263     1     7     5     3
 -0.0033471392     1     7     5     5
 -0.0021354374     1     7     5     6
 0.0003355585     1     7     5     8
 -0.0001305795     1     7     5     9
 0.0011233681     1     7     5    10
 0.0016477665     1     7     5    12
 0.0019377628     1     7     5    14
 -0.0293679441     1     7     6     1
 0.0031206918     1     7     6     2
 -0.0004382972     1     7     6     3
 -0.0013311905     1     7     6     5
 -0.0022316157     1     7     6     6
 0.0005546473     1     7     6     8
 0.0002001890     1     7     6     9
 0.0005271923     1     7     6    10
 0.0012910624     1     7     6    12
 0.0012067278     1     7     6    14
 -0.3118911739     1     7     7     1
 0.0030324274     1     7     7     2
 -0.0039767954     1     7     7     3
 0.0002139616     1     7     7     5
 -0.0013772741     1     7     7     6
 0.0004022930     1     7     7     8
 0.0001272716     1     7     7     9
 -0.0014978295     1     7     7    10
 0.0006318898     1     7     7    12
 0.0004021097     1     7     7    14
 0.0280402670     1     7     8     1
 -0.0009768418     1     7     8     2
 0.0001633868     1     7     8     3
 0.0000494980     1     7     8     5
 0.0005598767     1     7     8     6
 -0.0005683399     1     7     8     8
 0.0000713697     1     7     8     9
 -0.0002075189     1     7     8    10
 -0.0004202690     1     7     8    12
 -0.0003007384     1     7     8    14
 -0.0446560955     1     7     9     1
 0.0007593556     1     7     9     2
 -0.0011852864     1     7     9     3
 -0.0005490111     1     7     9     5
 -0.0004868549     1     7     9     6
 0.0002862815     1     7     9     8
 -0.0001648610     1     7     9     9
 0.0008637469     1     7     9    10
 0.0002721565     1     7     9    12
 -0.0001042131     1     7     9    14
 -0.1070280153     1     7    10     1
 0.0043033945     1     7    10     2
 -0.0051752669     1     7    10     3
 0.0023075641     1     7    10     5
 -0.0004041048     1     7    10     6
 -0.0000045835     1     7    10     8
 0.0012097712     1     7    10     9
 -0.0023717989     1     7    10    10
 0.0009508242     1     7    10    12
 -0.0008670090     1     7    10    14
 -0.0026935627     1     7    11     4
 -0.0017113578     1     7    11    11
 0.0012212290     1     7    11    13
 0.0000576848     1     7    12     1
 -0.0011825604     1     7    12     2
 0.0008487529     1     7    12     3
 0.0013171931     1     7    12     5
 0.0013747290     1     7    12     6
 -0.0004338627     1     7    12     8
 -0.0000119347     1     7    12     9
 0.0005452847     1     7    12    10
 -0.0006715654     1     7    12    12
 -0.0004434659     1     7    12    14
 0.0042859634     1     7    13     4
 0.0012703231     1     7    13    11
 -0.0012817253     1     7    13    13
 0.1076874371     1     7    14     1
 -0.0037908940     1     7    14     2
 0.0023074581     1     7    14     3
 0.0023879353     1     7    14     5
 0.0031080354     1     7    14     6
 -0.0008839009     1     7    14     8
 -0.0004894528     1     7    14     9
 -0.0000825917     1     7    14    10
 -0.0012161632     1     7    14    12
 -0.0010539571     1     7    14    14
 -0.0160781592     1     8     2     1
 -0.0001929933     1     8     2     2
 -0.0003298182     1     8     2     3
 -0.0006044075     1     8     2     5
 -0.0001734670     1     8     2     6
 -0.0000815024     1     8     2     7
 0.0000531334     1     8     2     9
 -0.0002004833     1     8     2    10
 -0.0001734180     1     8     2    12
 -0.0003077326     1     8     2    14
 0.0130253053     1     8     3     1
 -0.0010877820     1     8     3     2
 -0.0009627478     1     8     3     3
 0.0011012933     1     8     3     5
 0.0005168924     1     8     3     6
 -0.0003694109     1     8     3     7
 0.0001541912     1     8     3     9
 -0.0009201019     1     8     3    10
 -0.0005462530     1     8     3    12
 -0.0001306215     1     8     3    14
 -0.0020469589     1     8     4     4
 -0.0010472207     1     8     4    11
 0.0006871766     1     8     4    13
 0.0626216080     1     8     5     1
 -0.0054062995     1     8     5     2
 0.0025794612     1     8     5     3
 0.0001616625     1     8     5     5
 0.0009532337     1     8     5     6
 -0.0003355585     1     8     5     7
 -0.0008427691     1     8     5     9
 0.0003452390     1     8     5    10
 -0.0007931993     1     8     5    12
 0.0000129502     1     8     5    14
 0.1137318879     1     8     6     1
 -0.0042290651     1     8     6     2
 0.0011526140     1     8     6     3
 -0.0014619209     1     8     6     5
 0.0003915265     1     8     6     6
 -0.0005546473     1     8     6     7
 -0.0007477258     1     8     6     9
 0.0001293122     1     8     6    10
 -0.0004311640     1     8     6    12
 0.0008542632     1     8     6    14
 0.0280402670     1     8     7     1
 -0.0010631808     1     8     7     2
 -0.0001943596     1     8     7     3
 -0.0002811585     1     8     7     5
 0.0000071432     1     8     7     6
 -0.0004022930     1     8     7     7
 -0.0002149954     1     8     7     9
 -0.0002034779     1     8     7    10
 0.0000127926     1     8     7    12
 0.0005817365     1     8     7    14
 -0.2544808911     1     8     8     1
 0.0014280251     1     8     8     2
 0.0004146493     1     8     8     3
 0.0021744817     1     8     8     5
 0.0010859820     1     8     8     6
 0.0005683399     1     8     8     7
 0.0004673012     1     8     8     9
 -0.0000526180     1     8     8    10
 -0.0002577432     1     8     8    12
 -0.0014849350     1     8     8    14
 0.0096631925     1     8     9     1
 -0.0006541228     1     8     9     2
 -0.0002474957     1     8     9     3
 0.0001119911     1     8     9     5
 0.0001507642     1     8     9     6
 -0.0002862815     1     8     9     7
 0.0001514502     1     8     9     9