&FCI NORB= 11,NELEC= 16,MS2=0,
 ORBSYM=1,1,1,1,1,1,1,1,1,1,1
 ISYM=1,
&END
 0.3951843703     1     1     2     2
 -0.0051424116     1     1     2     4
 -0.0014450381     1     1     2    11
 0.5956805787     1     1     3     3
 -0.1113642076     1     1     3     6
 -0.0410578249     1     1     3     9
 -0.0051424116     1     1     4     2
 0.4805789459     1     1     4     4
 0.0705118477     1     1     4    11
 0.4809995029     1     1     5     5
 -0.1113642076     1     1     6     3
 0.5623299940     1     1     6     6
 -0.0579527495     1     1     6     9
 0.4477390630     1     1     7     7
 0.5246266908     1     1     8     8
 -0.0410578249     1     1     9     3
 -0.0579527495     1     1     9     6
 0.2241690793     1     1     9     9
 0.4009932732     1     1    10    10
 -0.0014450381     1     1    11     2
 0.0705118477     1     1    11     4
 0.2050333358     1     1    11    11
 -0.3951843703     1     2     2     1
 0.0042891310     1     2     2     3
 -0.0129649104     1     2     2     6
 0.0026891047     1     2     2     9
 -0.1491138478     1     2     3     4
 -0.0427399604     1     2     3    11
 0.0051424116     1     2     4     1
 -0.1492302255     1     2     4     3
 -0.1287793786     1     2     4     6
 0.0535272842     1     2     4     9
 0.1649976711     1     2     5     7
 -0.1291227726     1     2     6     4
 -0.0146788085     1     2     6    11
 0.1647976145     1     2     7     5
 0.1445648236     1     2     8    10
 0.0535967527     1     2     9     4
 0.0372945232     1     2     9    11
 0.1443306816     1     2    10     8
 0.0014450381     1     2    11     1
 -0.0427732045     1     2    11     3
 -0.0145800248     1     2    11     6
 0.0372744863     1     2    11     9
 -0.0042891310     1     3     2     2
 0.0001163777     1     3     2     4
 0.0000332441     1     3     2    11
 -0.5956805787     1     3     3     1
 -0.0092085472     1     3     3     6
 0.0025693301     1     3     3     9
 0.1492302255     1     3     4     2
 0.0052452874     1     3     4     4
 0.0014921160     1     3     4    11
 0.0115570464     1     3     5     5
 0.1113642076     1     3     6     1
 0.0178144634     1     3     6     6
 -0.0053609033     1     3     6     9
 0.0085958737     1     3     7     7
 0.0127753150     1     3     8     8
 0.0410578249     1     3     9     1
 -0.0030057664     1     3     9     6
 0.0008692111     1     3     9     9
 0.0070570455     1     3    10    10
 0.0427732045     1     3    11     2
 0.0010560203     1     3    11     4
 0.0004776297     1     3    11    11
 0.0051424116     1     4     2     1
 -0.0001163777     1     4     2     3
 0.0003433940     1     4     2     6
 -0.0000694685     1     4     2     9
 0.1491138478     1     4     3     2
 0.0004360957     1     4     3    11
 -0.4805789459     1     4     4     1
 -0.0052452874     1     4     4     3
 0.0026810521     1     4     4     6
 -0.0001587107     1     4     4     9
 -0.0058856369     1     4     5     7
 0.1291227726     1     4     6     2
 0.0002687479     1     4     6    11
 -0.0079210360     1     4     7     5
 -0.0054516329     1     4     8    10
 -0.0535967527     1     4     9     2
 0.0005151046     1     4     9    11
 -0.0072620194     1     4    10     8
 -0.0705118477     1     4    11     1
 -0.0010560203     1     4    11     3
 0.0006636811     1     4    11     6
 0.0005780591     1     4    11     9
 0.0002000566     1     5     2     7
 0.0020353991     1     5     4     7
 -0.4809995029     1     5     5     1
 -0.0115570464     1     5     5     3
 -0.0036807033     1     5     5     6
 0.0018363001     1     5     5     9
 -0.1647976145     1     5     7     2
 0.0079210360     1     5     7     4
 0.0016150074     1     5     7    11
 0.0000295909     1     5    11     7
 0.0129649104     1     6     2     2
 -0.0003433940     1     6     2     4
 -0.0000987837     1     6     2    11
 0.1113642076     1     6     3     1
 0.0092085472     1     6     3     3
 -0.0023551369     1     6     3     9
 0.1287793786     1     6     4     2
 -0.0026810521     1     6     4     4
 -0.0003949332     1     6     4    11
 0.0036807033     1     6     5     5
 -0.5623299940     1     6     6     1
 -0.0178144634     1     6     6     3
 0.0044609934     1     6     6     9
 0.0017345754     1     6     7     7
 0.0041316270     1     6     8     8
 0.0579527495     1     6     9     1
 0.0030057664     1     6     9     3
 -0.0004331114     1     6     9     9
 0.0011241370     1     6    10    10
 0.0145800248     1     6    11     2
 -0.0006636811     1     6    11     4
 -0.0006327495     1     6    11    11
 -0.0002000566     1     7     2     5
 -0.0020353991     1     7     4     5
 -0.1649976711     1     7     5     2
 0.0058856369     1     7     5     4
 0.0015854165     1     7     5    11
 -0.4477390630     1     7     7     1
 -0.0085958737     1     7     7     3
 -0.0017345754     1     7     7     6
 0.0014850132     1     7     7     9
 -0.0000295909     1     7    11     5
 0.0002341420     1     8     2    10
 0.0018103865     1     8     4    10
 -0.5246266908     1     8     8     1
 -0.0127753150     1     8     8     3
 -0.0041316270     1     8     8     6
 0.0036875428     1     8     8     9
 -0.1443306816     1     8    10     2
 0.0072620194     1     8    10     4
 0.0020663898     1     8    10    11
 0.0000018211     1     8    11    10
 -0.0026891047     1     9     2     2
 0.0000694685     1     9     2     4
 0.0000200369     1     9     2    11
 0.0410578249     1     9     3     1
 -0.0025693301     1     9     3     3
 0.0023551369     1     9     3     6
 -0.0535272842     1     9     4     2
 0.0001587107     1     9     4     4
 -0.0000629545     1     9     4    11
 -0.0018363001     1     9     5     5
 0.0579527495     1     9     6     1
 0.0053609033     1     9     6     3
 -0.0044609934     1     9     6     6
 -0.0014850132     1     9     7     7
 -0.0036875428     1     9     8     8
 -0.2241690793     1     9     9     1
 -0.0008692111     1     9     9     3
 0.0004331114     1     9     9     6
 -0.0017462842     1     9    10    10
 -0.0372744863     1     9    11     2
 -0.0005780591     1     9    11     4
 -0.0000612298     1     9    11    11
 -0.0002341420     1    10     2     8
 -0.0018103865     1    10     4     8
 -0.1445648236     1    10     8     2
 0.0054516329     1    10     8     4
 0.0020645687     1    10     8    11
 -0.4009932732     1    10    10     1
 -0.0070570455     1    10    10     3
 -0.0011241370     1    10    10     6
 0.0017462842     1    10    10     9
 -0.0000018211     1    10    11     8
 0.0014450381     1    11     2     1
 -0.0000332441     1    11     2     3
 0.0000987837     1    11     2     6
 -0.0000200369     1    11     2     9
 0.0427399604     1    11     3     2
 -0.0004360957     1    11     3     4
 -0.0705118477     1    11     4     1
 -0.0014921160     1    11     4     3
 0.0003949332     1    11     4     6
 0.0000629545     1    11     4     9
 -0.0015854165     1    11     5     7
 0.0146788085     1    11     6     2
 -0.0002687479     1    11     6     4
 -0.0016150074     1    11     7     5
 -0.0020645687     1    11     8    10
 -0.0372945232     1    11     9     2
 -0.0005151046     1    11     9     4
 -0.0020663898     1    11    10     8
 -0.2050333358     1    11    11     1
 -0.0004776297     1    11    11     3
 0.0006327495     1    11    11     6
 0.0000612298     1    11    11     9
 -0.3951843703     2     1     1     2
 0.0051424116     2     1     1     4
 0.0014450381     2     1     1    11
 0.0042891310     2     1     3     2
 -0.1492302255     2     1     3     4
 -0.0427732045     2     1     3    11
 -0.1491138478     2     1     4     3
 -0.1291227726     2     1     4     6
 0.0535967527     2     1     4     9
 0.1647976145     2     1     5     7
 -0.0129649104     2     1     6     2
 -0.1287793786     2     1     6     4
 -0.0145800248     2     1     6    11
 0.1649976711     2     1     7     5
 0.1443306816     2     1     8    10
 0.0026891047     2     1     9     2
 0.0535272842     2     1     9     4
 0.0372744863     2     1     9    11
 0.1445648236     2     1    10     8
 -0.0427399604     2     1    11     3
 -0.0146788085     2     1    11     6
 0.0372945232     2     1    11     9
 0.3951843703     2     2     1     1
 -0.0042891310     2     2     1     3
 0.0129649104     2     2     1     6
 -0.0026891047     2     2     1     9
 -0.0042891310     2     2     3     1
 0.5956981100     2     2     3     3
 -0.1115540917     2     2     3     6
 -0.0410078589     2     2     3     9
 0.4804832844     2     2     4     4
 0.0704828282     2     2     4    11
 0.4812537993     2     2     5     5
 0.0129649104     2     2     6     1
 -0.1115540917     2     2     6     3
 0.5631562432     2     2     6     6
 -0.0581433959     2     2     6     9
 0.4475982735     2     2     7     7
 0.5249694381     2     2     8     8
 -0.0026891047     2     2     9     1
 -0.0410078589     2     2     9     3
 -0.0581433959     2     2     9     6
 0.2242102432     2     2     9     9
 0.4008532883     2     2    10    10
 0.0704828282     2     2    11     4
 0.2050272554     2     2    11    11
 0.0042891310     2     3     1     2
 -0.0001163777     2     3     1     4
 -0.0000332441     2     3     1    11
 -0.5956981100     2     3     3     2
 0.0037761330     2     3     3     4
 0.0011486699     2     3     3    11
 0.1491138478     2     3     4     1
 -0.0110189906     2     3     4     6
 0.0030231433     2     3     4     9
 0.0131001950     2     3     5     7
 0.1115540917     2     3     6     2
 -0.0120328974     2     3     6     4
 -0.0031979505     2     3     6    11
 0.0107931951     2     3     7     5
 0.0126261812     2     3     8    10
 0.0410078589     2     3     9     2
 0.0022445969     2     3     9     4
 0.0010924485     2     3     9    11
 0.0100109557     2     3    10     8
 0.0427399604     2     3    11     1
 -0.0020853486     2     3    11     6
 0.0010979910     2     3    11     9
 -0.0051424116     2     4     1     1
 0.0001163777     2     4     1     3
 -0.0003433940     2     4     1     6
 0.0000694685     2     4     1     9
 0.1492302255     2     4     3     1
 -0.0037761330     2     4     3     3
 0.0010139068     2     4     3     6
 0.0007785464     2     4     3     9
 -0.4804832844     2     4     4     2
 -0.0002560616     2     4     4    11
 -0.0096026704     2     4     5     5
 0.1287793786     2     4     6     1
 0.0120328974     2     4     6     3
 -0.0162874711     2     4     6     6
 0.0018817578     2     4     6     9
 -0.0093228433     2     4     7     7
 -0.0110573242     2     4     8     8
 -0.0535272842     2     4     9     1
 -0.0022445969     2     4     9     3
 0.0033484145     2     4     9     6
 -0.0006121594     2     4     9     9
 -0.0072231477     2     4    10    10
 -0.0704828282     2     4    11     2
 0.0001434270     2     4    11    11
 -0.0002000566     2     5     1     7
 0.0023069999     2     5     3     7
 -0.4812537993     2     5     5     2
 0.0096026704     2     5     5     4
 0.0026276435     2     5     5    11
 -0.0009343144     2     5     6     7
 -0.1649976711     2     5     7     1
 -0.0107931951     2     5     7     3
 0.0034004711     2     5     7     6
 0.0004851857     2     5     7     9
 0.0004457624     2     5     9     7
 -0.0129649104     2     6     1     2
 0.0003433940     2     6     1     4
 0.0000987837     2     6     1    11
 0.1115540917     2     6     3     2
 -0.0010139068     2     6     3     4
 -0.0011126019     2     6     3    11
 0.1291227726     2     6     4     1
 0.0110189906     2     6     4     3
 -0.0014666567     2     6     4     9
 -0.0043347855     2     6     5     7
 -0.5631562432     2     6     6     2
 0.0162874711     2     6     6     4
 0.0039609603     2     6     6    11
 -0.0034004711     2     6     7     5
 -0.0051002699     2     6     8    10
 0.0581433959     2     6     9     2
 -0.0033484145     2     6     9     4
 -0.0022945593     2     6     9    11
 -0.0029100705     2     6    10     8
 0.0146788085     2     6    11     1
 0.0020853486     2     6    11     3
 -0.0019023772     2     6    11     9
 0.0002000566     2     7     1     5
 -0.0023069999     2     7     3     5
 -0.1647976145     2     7     5     1
 -0.0131001950     2     7     5     3
 0.0043347855     2     7     5     6
 0.0000394233     2     7     5     9
 0.0009343144     2     7     6     5
 -0.4475982735     2     7     7     2
 0.0093228433     2     7     7     4
 0.0020360001     2     7     7    11
 -0.0004457624     2     7     9     5
 -0.0002341420     2     8     1    10
 0.0026152255     2     8     3    10
 -0.0021901994     2     8     6    10
 -0.5249694381     2     8     8     2
 0.0110573242     2     8     8     4
 0.0037516762     2     8     8    11
 0.0001633893     2     8     9    10
 -0.1445648236     2     8    10     1
 -0.0100109557     2     8    10     3
 0.0029100705     2     8    10     6
 0.0012721156     2     8    10     9
 0.0026891047     2     9     1     2
 -0.0000694685     2     9     1     4
 -0.0000200369     2     9     1    11
 0.0410078589     2     9     3     2
 -0.0007785464     2     9     3     4
 -0.0000055425     2     9     3    11
 -0.0535967527     2     9     4     1
 -0.0030231433     2     9     4     3
 0.0014666567     2     9     4     6
 -0.0000394233     2     9     5     7
 0.0581433959     2     9     6     2
 -0.0018817578     2     9     6     4
 -0.0003921821     2     9     6    11
 -0.0004851857     2     9     7     5
 -0.0011087263     2     9     8    10
 -0.2242102432     2     9     9     2
 0.0006121594     2     9     9     4
 0.0004567426     2     9     9    11
 -0.0012721156     2     9    10     8
 -0.0372945232     2     9    11     1
 -0.0010979910     2     9    11     3
 0.0019023772     2     9    11     6
 0.0002341420     2    10     1     8
 -0.0026152255     2    10     3     8
 0.0021901994     2    10     6     8
 -0.1443306816     2    10     8     1
 -0.0126261812     2    10     8     3
 0.0051002699     2    10     8     6
 0.0011087263     2    10     8     9
 -0.0001633893     2    10     9     8
 -0.4008532883     2    10    10     2
 0.0072231477     2    10    10     4
 0.0020303843     2    10    10    11
 -0.0014450381     2    11     1     1
 0.0000332441     2    11     1     3
 -0.0000987837     2    11     1     6
 0.0000200369     2    11     1     9
 0.0427732045     2    11     3     1
 -0.0011486699     2    11     3     3
 0.0011126019     2    11     3     6
 0.0000055425     2    11     3     9
 -0.0704828282     2    11     4     2
 0.0002560616     2    11     4     4
 -0.0026276435     2    11     5     5
 0.0145800248     2    11     6     1
 0.0031979505     2    11     6     3
 -0.0039609603     2    11     6     6
 0.0003921821     2    11     6     9
 -0.0020360001     2    11     7     7
 -0.0037516762     2    11     8     8
 -0.0372744863     2    11     9     1
 -0.0010924485     2    11     9     3
 0.0022945593     2    11     9     6
 -0.0004567426     2    11     9     9
 -0.0020303843     2    11    10    10
 -0.2050272554     2    11    11     2
 -0.0001434270     2    11    11     4
 -0.5956805787     3     1     1     3
 0.1113642076     3     1     1     6
 0.0410578249     3     1     1     9
 -0.0042891310     3     1     2     2
 0.1492302255     3     1     2     4
 0.0427732045     3     1     2    11
 0.0001163777     3     1     4     2
 0.0052452874     3     1     4     4
 0.0010560203     3     1     4    11
 0.0115570464     3     1     5     5
 -0.0092085472     3     1     6     3
 0.0178144634     3     1     6     6
 -0.0030057664     3     1     6     9
 0.0085958737     3     1     7     7
 0.0127753150     3     1     8     8
 0.0025693301     3     1     9     3
 -0.0053609033     3     1     9     6
 0.0008692111     3     1     9     9
 0.0070570455     3     1    10    10
 0.0000332441     3     1    11     2
 0.0014921160     3     1    11     4
 0.0004776297     3     1    11    11
 0.1491138478     3     2     1     4
 0.0427399604     3     2     1    11
 0.0042891310     3     2     2     1
 -0.5956981100     3     2     2     3
 0.1115540917     3     2     2     6
 0.0410078589     3     2     2     9
 -0.0001163777     3     2     4     1
 0.0037761330     3     2     4     3
 -0.0120328974     3     2     4     6
 0.0022445969     3     2     4     9
 0.0107931951     3     2     5     7
 -0.0110189906     3     2     6     4
 -0.0020853486     3     2     6    11
 0.0131001950     3     2     7     5
 0.0100109557     3     2     8    10
 0.0030231433     3     2     9     4
 0.0010979910     3     2     9    11
 0.0126261812     3     2    10     8
 -0.0000332441     3     2    11     1
 0.0011486699     3     2    11     3
 -0.0031979505     3     2    11     6
 0.0010924485     3     2    11     9
 0.5956805787     3     3     1     1
 0.0092085472     3     3     1     6
 -0.0025693301     3     3     1     9
 0.5956981100     3     3     2     2
 -0.0037761330     3     3     2     4
 -0.0011486699     3     3     2    11
 -0.0037761330     3     3     4     2
 0.3152592374     3     3     4     4
 0.0282937912     3     3     4    11
 0.3522548278     3     3     5     5
 0.0092085472     3     3     6     1
 0.3843735869     3     3     6     6
 -0.0332034795     3     3     6     9
 0.3528807770     3     3     7     7
 0.3875320525     3     3     8     8
 -0.0025693301     3     3     9     1
 -0.0332034795     3     3     9     6
 0.2092518960     3     3     9     9
 0.3273493213     3     3    10    10
 -0.0011486699     3     3    11     2
 0.0282937912     3     3    11     4
 0.1896681922     3     3    11    11
 -0.1491138478     3     4     1     2
 -0.0004360957     3     4     1    11
 -0.1492302255     3     4     2     1
 0.0037761330     3     4     2     3
 -0.0010139068     3     4     2     6
 -0.0007785464     3     4     2     9
 -0.0052452874     3     4     4     1
 -0.3152592374     3     4     4     3
 0.0893943356     3     4     4     6
 0.0012198839     3     4     4     9
 -0.0553636008     3     4     5     7
 0.0110189906     3     4     6     2
 -0.0104172604     3     4     6    11
 -0.0328759121     3     4     7     5
 -0.0510310059     3     4     8    10
 -0.0030231433     3     4     9     2
 -0.0226722085     3     4     9    11
 -0.0348560948     3     4    10     8
 -0.0014921160     3     4    11     1
 -0.0282937912     3     4    11     3
 0.0096242695     3     4    11     6
 -0.0233083455     3     4    11     9
 -0.0023069999     3     5     2     7
 -0.0224876887     3     5     4     7
 -0.0115570464     3     5     5     1
 -0.3522548278     3     5     5     3
 0.0564158613     3     5     5     6
 0.0227240008     3     5     5     9
 -0.0131001950     3     5     7     2
 0.0328759121     3     5     7     4
 0.0136417596     3     5     7    11
 0.0004968066     3     5    11     7
 -0.1113642076     3     6     1     1
 -0.0092085472     3     6     1     3
 0.0023551369     3     6     1     9
 -0.1115540917     3     6     2     2
 0.0010139068     3     6     2     4
 0.0011126019     3     6     2    11
 0.0120328974     3     6     4     2
 -0.0893943356     3     6     4     4
 -0.0200415299     3     6     4    11
 -0.0564158613     3     6     5     5
 -0.0178144634     3     6     6     1
 -0.3843735869     3     6     6     3
 0.0240074308     3     6     6     9
 -0.0416532336     3     6     7     7
 -0.0567829207     3     6     8     8
 0.0053609033     3     6     9     1
 0.0332034795     3     6     9     3
 -0.0076856386     3     6     9     9
 -0.0303354488     3     6    10    10
 0.0031979505     3     6    11     2
 -0.0096242695     3     6    11     4
 -0.0004200821     3     6    11    11
 0.0023069999     3     7     2     5
 0.0224876887     3     7     4     5
 -0.0107931951     3     7     5     2
 0.0553636008     3     7     5     4
 0.0131449530     3     7     5    11
 -0.0085958737     3     7     7     1
 -0.3528807770     3     7     7     3
 0.0416532336     3     7     7     6
 0.0169152674     3     7     7     9
 -0.0004968066     3     7    11     5
 -0.0026152255     3     8     2    10
 -0.0161749111     3     8     4    10
 -0.0127753150     3     8     8     1
 -0.3875320525     3     8     8     3
 0.0567829207     3     8     8     6
 0.0176841742     3     8     8     9
 -0.0126261812     3     8    10     2
 0.0348560948     3     8    10     4
 0.0103200948     3     8    10    11
 0.0004893754     3     8    11    10
 -0.0410578249     3     9     1     1
 0.0025693301     3     9     1     3
 -0.0023551369     3     9     1     6
 -0.0410078589     3     9     2     2
 0.0007785464     3     9     2     4
 0.0000055425     3     9     2    11
 -0.0022445969     3     9     4     2
 -0.0012198839     3     9     4     4
 0.0006361370     3     9     4    11
 -0.0227240008     3     9     5     5
 0.0030057664     3     9     6     1
 0.0332034795     3     9     6     3
 -0.0240074308     3     9     6     6
 -0.0169152674     3     9     7     7
 -0.0176841742     3     9     8     8
 -0.0008692111     3     9     9     1
 -0.2092518960     3     9     9     3
 0.0076856386     3     9     9     6
 -0.0000000003     3     9     9    11
 -0.0135767298     3     9    10    10
 -0.0010924485     3     9    11     2
 0.0233083455     3     9    11     4
 -0.0015798572     3     9    11    11
 0.0026152255     3    10     2     8
 0.0161749111     3    10     4     8
 -0.0100109557     3    10     8     2
 0.0510310059     3    10     8     4
 0.0098307194     3    10     8    11
 -0.0070570455     3    10    10     1
 -0.3273493213     3    10    10     3
 0.0303354488     3    10    10     6
 0.0135767298     3    10    10     9
 -0.0000000004     3    10    10    11
 -0.0004893754     3    10    11     8
 -0.0427399604     3    11     1     2
 0.0004360957     3    11     1     4
 -0.0427732045     3    11     2     1
 0.0011486699     3    11     2     3
 -0.0011126019     3    11     2     6
 -0.0000055425     3    11     2     9
 -0.0010560203     3    11     4     1
 -0.0282937912     3    11     4     3
 0.0200415299     3    11     4     6
 -0.0006361370     3    11     4     9
 -0.0131449530     3    11     5     7
 0.0020853486     3    11     6     2
 0.0104172604     3    11     6     4
 -0.0136417596     3    11     7     5
 -0.0098307194     3    11     8    10
 -0.0010979910     3    11     9     2
 0.0226722085     3    11     9     4
 0.0000000003     3    11     9     9
 -0.0103200948     3    11    10     8
 0.0000000004     3    11    10    10
 -0.0004776297     3    11    11     1
 -0.1896681922     3    11    11     3
 0.0004200821     3    11    11     6
 0.0015798572     3    11    11     9
 0.0051424116     4     1     1     2
 -0.4805789459     4     1     1     4
 -0.0705118477     4     1     1    11
 0.1491138478     4     1     2     3
 0.1291227726     4     1     2     6
 -0.0535967527     4     1     2     9
 -0.0001163777     4     1     3     2
 -0.0052452874     4     1     3     4
 -0.0010560203     4     1     3    11
 -0.0079210360     4     1     5     7
 0.0003433940     4     1     6     2
 0.0026810521     4     1     6     4
 0.0006636811     4     1     6    11
 -0.0058856369     4     1     7     5
 -0.0072620194     4     1     8    10
 -0.0000694685     4     1     9     2
 -0.0001587107     4     1     9     4
 0.0005780591     4     1     9    11
 -0.0054516329     4     1    10     8
 0.0004360957     4     1    11     3
 0.0002687479     4     1    11     6
 0.0005151046     4     1    11     9
 -0.0051424116     4     2     1     1
 0.1492302255     4     2     1     3
 0.1287793786     4     2     1     6
 -0.0535272842     4     2     1     9
 -0.4804832844     4     2     2     4
 -0.0704828282     4     2     2    11
 0.0001163777     4     2     3     1
 -0.0037761330     4     2     3     3
 0.0120328974     4     2     3     6
 -0.0022445969     4     2     3     9
 -0.0096026704     4     2     5     5
 -0.0003433940     4     2     6     1
 0.0010139068     4     2     6     3
 -0.0162874711     4     2     6     6
 0.0033484145     4     2     6     9
 -0.0093228433     4     2     7     7
 -0.0110573242     4     2     8     8
 0.0000694685     4     2     9     1
 0.0007785464     4     2     9     3
 0.0018817578     4     2     9     6
 -0.0006121594     4     2     9     9
 -0.0072231477     4     2    10    10
 -0.0002560616     4     2    11     4
 0.0001434270     4     2    11    11
 -0.1492302255     4     3     1     2
 -0.0052452874     4     3     1     4
 -0.0014921160     4     3     1    11
 -0.1491138478     4     3     2     1
 0.0110189906     4     3     2     6
 -0.0030231433     4     3     2     9
 0.0037761330     4     3     3     2
 -0.3152592374     4     3     3     4
 -0.0282937912     4     3     3    11
 -0.0328759121     4     3     5     7
 -0.0010139068     4     3     6     2
 0.0893943356     4     3     6     4
 0.0096242695     4     3     6    11
 -0.0553636008     4     3     7     5
 -0.0348560948     4     3     8    10
 -0.0007785464     4     3     9     2
 0.0012198839     4     3     9     4
 -0.0233083455     4     3     9    11
 -0.0510310059     4     3    10     8
 -0.0004360957     4     3    11     1
 -0.0104172604     4     3    11     6
 -0.0226722085     4     3    11     9
 0.4805789459     4     4     1     1
 0.0052452874     4     4     1     3
 -0.0026810521     4     4     1     6
 0.0001587107     4     4     1     9
 0.4804832844     4     4     2     2
 0.0002560616     4     4     2    11
 0.0052452874     4     4     3     1
 0.3152592374     4     4     3     3
 -0.0893943356     4     4     3     6
 -0.0012198839     4     4     3     9
 0.3247298883     4     4     5     5
 -0.0026810521     4     4     6     1
 -0.0893943356     4     4     6     3
 0.2988684146     4     4     6     6
 -0.0108014252     4     4     6     9
 0.2961480388     4     4     7     7
 0.3472022867     4     4     8     8
 0.0001587107     4     4     9     1
 -0.0012198839     4     4     9     3
 -0.0108014252     4     4     9     6
 0.2005327756     4     4     9     9
 0.2914598237     4     4    10    10
 0.0002560616     4     4    11     2
 0.1892493842     4     4    11    11
 -0.0020353991     4     5     1     7
 0.0224876887     4     5     3     7
 0.0096026704     4     5     5     2
 -0.3247298883     4     5     5     4
 -0.0305876264     4     5     5    11
 -0.0004219470     4     5     6     7
 0.0058856369     4     5     7     1
 0.0553636008     4     5     7     3
 0.0625822201     4     5     7     6
 -0.0219272105     4     5     7     9
 0.0055770758     4     5     9     7
 -0.1287793786     4     6     1     2
 0.0026810521     4     6     1     4
 0.0003949332     4     6     1    11
 -0.1291227726     4     6     2     1
 -0.0110189906     4     6     2     3
 0.0014666567     4     6     2     9
 -0.0120328974     4     6     3     2
 0.0893943356     4     6     3     4
 0.0200415299     4     6     3    11
 -0.0630041671     4     6     5     7
 0.0162874711     4     6     6     2
 -0.2988684146     4     6     6     4
 -0.0374865891     4     6     6    11
 -0.0625822201     4     6     7     5
 -0.0639174007     4     6     8    10
 -0.0018817578     4     6     9     2
 0.0108014252     4     6     9     4
 -0.0264981616     4     6     9    11
 -0.0565943238     4     6    10     8
 -0.0002687479     4     6    11     1
 0.0104172604     4     6    11     3
 -0.0300465103     4     6    11     9
 0.0020353991     4     7     1     5
 -0.0224876887     4     7     3     5
 0.0079210360     4     7     5     1
 0.0328759121     4     7     5     3
 0.0630041671     4     7     5     6
 -0.0275042863     4     7     5     9
 0.0004219470     4     7     6     5
 0.0093228433     4     7     7     2
 -0.2961480388     4     7     7     4
 -0.0298498352     4     7     7    11
 -0.0055770758     4     7     9     5
 -0.0018103865     4     8     1    10
 0.0161749111     4     8     3    10
 -0.0073230769     4     8     6    10
 0.0110573242     4     8     8     2
 -0.3472022867     4     8     8     4
 -0.0337966176     4     8     8    11
 0.0003144110     4     8     9    10
 0.0054516329     4     8    10     1
 0.0510310059     4     8    10     3
 0.0565943238     4     8    10     6
 -0.0163710278     4     8    10     9
 0.0000000001     4     8    10    11
 0.0535272842     4     9     1     2
 -0.0001587107     4     9     1     4
 0.0000629545     4     9     1    11
 0.0535967527     4     9     2     1
 0.0030231433     4     9     2     3
 -0.0014666567     4     9     2     6
 0.0022445969     4     9     3     2
 0.0012198839     4     9     3     4
 -0.0006361370     4     9     3    11
 0.0275042863     4     9     5     7
 -0.0033484145     4     9     6     2
 0.0108014252     4     9     6     4
 0.0035483487     4     9     6    11
 0.0219272105     4     9     7     5
 0.0166854388     4     9     8    10
 0.0006121594     4     9     9     2
 -0.2005327756     4     9     9     4
 -0.0033793398     4     9     9    11
 0.0163710278     4     9    10     8
 -0.0000000003     4     9    10    10
 -0.0005151046     4     9    11     1
 0.0226722085     4     9    11     3
 0.0300465103     4     9    11     6
 0.0000000003     4     9    11    11
 0.0018103865     4    10     1     8
 -0.0161749111     4    10     3     8
 0.0073230769     4    10     6     8
 0.0072620194     4    10     8     1
 0.0348560948     4    10     8     3
 0.0639174007     4    10     8     6
 -0.0166854388     4    10     8     9
 0.0000000001     4    10     8    11
 -0.0003144110     4    10     9     8