&FCI NORB=  8,NELEC= 10,MS2=0,
 ORBSYM=1,1,1,1,1,1,1,1
 ISYM=1,
&END
 0.9828832829     1     1     2     2
 0.0716492370     1     1     2     4
 -0.1488092340     1     1     2     6
 0.8594487490     1     1     3     3
 -0.1833023685     1     1     3     7
 0.1234785153     1     1     3     8
 0.0716492370     1     1     4     2
 0.9526301569     1     1     4     4
 0.0825902336     1     1     4     6
 1.0053472257     1     1     5     5
 -0.1488092340     1     1     6     2
 0.0825902336     1     1     6     4
 0.3990918759     1     1     6     6
 -0.1833023685     1     1     7     3
 0.3924376098     1     1     7     7
 -0.1544106940     1     1     7     8
 0.1234785153     1     1     8     3
 -0.1544106940     1     1     8     7
 0.5538847440     1     1     8     8
 -0.9828832829     1     2     2     1
 -0.0068295004     1     2     2     4
 -0.0015292096     1     2     2     6
 0.0299522985     1     2     3     3
 -0.0148359286     1     2     3     7
 0.0155126602     1     2     3     8
 -0.0716492370     1     2     4     1
 0.0353766568     1     2     4     4
 0.0087397599     1     2     4     6
 0.0407938261     1     2     5     5
 0.1488092340     1     2     6     1
 0.0080294426     1     2     6     4
 0.0028642407     1     2     6     6
 -0.0108177227     1     2     7     3
 0.0073351209     1     2     7     7
 -0.0074236466     1     2     7     8
 0.0102180563     1     2     8     3
 -0.0064687040     1     2     8     7
 0.0061361607     1     2     8     8
 -0.0032060028     1     3     2     7
 0.0047096462     1     3     2     8
 -0.8594487490     1     3     3     1
 -0.0299522985     1     3     3     2
 -0.0104590625     1     3     3     4
 0.0047900320     1     3     3     6
 0.0018224054     1     3     4     7
 -0.0060780053     1     3     4     8
 -0.0025321683     1     3     6     7
 -0.0003762361     1     3     6     8
 0.1833023685     1     3     7     1
 0.0108177227     1     3     7     2
 0.0039545656     1     3     7     4
 -0.0057464237     1     3     7     6
 -0.1234785153     1     3     8     1
 -0.0102180563     1     3     8     2
 -0.0033081180     1     3     8     4
 0.0045463304     1     3     8     6
 -0.0716492370     1     4     2     1
 0.0068295004     1     4     2     2
 0.0001711189     1     4     2     6
 0.0104590625     1     4     3     3
 -0.0022491973     1     4     3     7
 -0.0027347888     1     4     3     8
 -0.9526301569     1     4     4     1
 -0.0353766568     1     4     4     2
 0.0107312435     1     4     4     6
 0.0139513293     1     4     5     5
 -0.0825902336     1     4     6     1
 -0.0080294426     1     4     6     2
 0.0054893050     1     4     6     6
 -0.0039545656     1     4     7     3
 0.0038718187     1     4     7     7
 -0.0016203280     1     4     7     8
 0.0033081180     1     4     8     3
 -0.0040477925     1     4     8     7
 0.0061098952     1     4     8     8
 -1.0053472257     1     5     5     1
 -0.0407938261     1     5     5     2
 -0.0139513293     1     5     5     4
 0.0102270979     1     5     5     6
 0.1488092340     1     6     2     1
 0.0015292096     1     6     2     2
 -0.0001711189     1     6     2     4
 -0.0047900320     1     6     3     3
 0.0030313369     1     6     3     7
 -0.0048357530     1     6     3     8
 -0.0825902336     1     6     4     1
 -0.0087397599     1     6     4     2
 -0.0107312435     1     6     4     4
 -0.0102270979     1     6     5     5
 -0.3990918759     1     6     6     1
 -0.0028642407     1     6     6     2
 -0.0054893050     1     6     6     4
 0.0057464237     1     6     7     3
 -0.0028691942     1     6     7     7
 0.0033927232     1     6     7     8
 -0.0045463304     1     6     8     3
 0.0019710909     1     6     8     7
 -0.0011120079     1     6     8     8
 0.0032060028     1     7     2     3
 -0.0008745041     1     7     2     8
 0.1833023685     1     7     3     1
 0.0148359286     1     7     3     2
 0.0022491973     1     7     3     4
 -0.0030313369     1     7     3     6
 -0.0018224054     1     7     4     3
 0.0023774885     1     7     4     8
 0.0025321683     1     7     6     3
 0.0014244840     1     7     6     8
 -0.3924376098     1     7     7     1
 -0.0073351209     1     7     7     2
 -0.0038718187     1     7     7     4
 0.0028691942     1     7     7     6
 0.1544106940     1     7     8     1
 0.0064687040     1     7     8     2
 0.0040477925     1     7     8     4
 -0.0019710909     1     7     8     6
 -0.0047096462     1     8     2     3
 0.0008745041     1     8     2     7
 -0.1234785153     1     8     3     1
 -0.0155126602     1     8     3     2
 0.0027347888     1     8     3     4
 0.0048357530     1     8     3     6
 0.0060780053     1     8     4     3
 -0.0023774885     1     8     4     7
 0.0003762361     1     8     6     3
 -0.0014244840     1     8     6     7
 0.1544106940     1     8     7     1
 0.0074236466     1     8     7     2
 0.0016203280     1     8     7     4
 -0.0033927232     1     8     7     6
 -0.5538847440     1     8     8     1
 -0.0061361607     1     8     8     2
 -0.0061098952     1     8     8     4
 0.0011120079     1     8     8     6
 -0.9828832829     2     1     1     2
 -0.0716492370     2     1     1     4
 0.1488092340     2     1     1     6
 0.0299522985     2     1     3     3
 -0.0108177227     2     1     3     7
 0.0102180563     2     1     3     8
 -0.0068295004     2     1     4     2
 0.0353766568     2     1     4     4
 0.0080294426     2     1     4     6
 0.0407938261     2     1     5     5
 -0.0015292096     2     1     6     2
 0.0087397599     2     1     6     4
 0.0028642407     2     1     6     6
 -0.0148359286     2     1     7     3
 0.0073351209     2     1     7     7
 -0.0064687040     2     1     7     8
 0.0155126602     2     1     8     3
 -0.0074236466     2     1     8     7
 0.0061361607     2     1     8     8
 0.9828832829     2     2     1     1
 0.0068295004     2     2     1     4
 0.0015292096     2     2     1     6
 0.5247527620     2     2     3     3
 -0.0720162176     2     2     3     7
 0.0215040694     2     2     3     8
 0.0068295004     2     2     4     1
 0.5521406005     2     2     4     4
 0.0344347962     2     2     4     6
 0.5825920922     2     2     5     5
 0.0015292096     2     2     6     1
 0.0344347962     2     2     6     4
 0.3346372150     2     2     6     6
 -0.0720162176     2     2     7     3
 0.3279143680     2     2     7     7
 -0.0855789980     2     2     7     8
 0.0215040694     2     2     8     3
 -0.0855789980     2     2     8     7
 0.4732107670     2     2     8     8
 0.0032060028     2     3     1     7
 -0.0047096462     2     3     1     8
 -0.0299522985     2     3     3     1
 -0.5247527620     2     3     3     2
 -0.0030399922     2     3     3     4
 0.0687196985     2     3     3     6
 -0.0145958764     2     3     4     7
 0.0383496073     2     3     4     8
 0.0401743371     2     3     6     7
 -0.0000555902     2     3     6     8
 0.0148359286     2     3     7     1
 0.0720162176     2     3     7     2
 -0.0014773431     2     3     7     4
 0.0226609351     2     3     7     6
 -0.0155126602     2     3     8     1
 -0.0215040694     2     3     8     2
 0.0043295648     2     3     8     4
 0.0028807119     2     3     8     6
 0.0716492370     2     4     1     1
 -0.0068295004     2     4     1     2
 -0.0001711189     2     4     1     6
 0.0030399922     2     4     3     3
 -0.0128152116     2     4     3     7
 0.0340257082     2     4     3     8
 -0.0353766568     2     4     4     1
 -0.5521406005     2     4     4     2
 0.0690804976     2     4     4     6
 0.0067002344     2     4     5     5
 -0.0087397599     2     4     6     1
 -0.0344347962     2     4     6     2
 -0.0118897259     2     4     6     6
 0.0014773431     2     4     7     3
 -0.0143380839     2     4     7     7
 -0.0039168642     2     4     7     8
 -0.0043295648     2     4     8     3
 0.0046407238     2     4     8     7
 -0.0194606356     2     4     8     8
 -0.0407938261     2     5     5     1
 -0.5825920922     2     5     5     2
 -0.0067002344     2     5     5     4
 0.0665349909     2     5     5     6
 -0.1488092340     2     6     1     1
 -0.0015292096     2     6     1     2
 0.0001711189     2     6     1     4
 -0.0687196985     2     6     3     3
 0.0157630768     2     6     3     7
 -0.0015085923     2     6     3     8
 -0.0080294426     2     6     4     1
 -0.0344347962     2     6     4     2
 -0.0690804976     2     6     4     4
 -0.0665349909     2     6     5     5
 -0.0028642407     2     6     6     1
 -0.3346372150     2     6     6     2
 0.0118897259     2     6     6     4
 -0.0226609351     2     6     7     3
 -0.0134575157     2     6     7     7
 0.0214059978     2     6     7     8
 -0.0028807119     2     6     8     3
 0.0120930350     2     6     8     7
 -0.0368162598     2     6     8     8
 -0.0032060028     2     7     1     3
 0.0008745041     2     7     1     8
 0.0108177227     2     7     3     1
 0.0720162176     2     7     3     2
 0.0128152116     2     7     3     4
 -0.0157630768     2     7     3     6
 0.0145958764     2     7     4     3
 -0.0076897574     2     7     4     8
 -0.0401743371     2     7     6     3
 0.0094827286     2     7     6     8
 -0.0073351209     2     7     7     1
 -0.3279143680     2     7     7     2
 0.0143380839     2     7     7     4
 0.0134575157     2     7     7     6
 0.0074236466     2     7     8     1
 0.0855789980     2     7     8     2
 -0.0046407238     2     7     8     4
 -0.0120930350     2     7     8     6
 0.0047096462     2     8     1     3
 -0.0008745041     2     8     1     7
 -0.0102180563     2     8     3     1
 -0.0215040694     2     8     3     2
 -0.0340257082     2     8     3     4
 0.0015085923     2     8     3     6
 -0.0383496073     2     8     4     3
 0.0076897574     2     8     4     7
 0.0000555902     2     8     6     3
 -0.0094827286     2     8     6     7
 0.0064687040     2     8     7     1
 0.0855789980     2     8     7     2
 0.0039168642     2     8     7     4
 -0.0214059978     2     8     7     6
 -0.0061361607     2     8     8     1
 -0.4732107670     2     8     8     2
 0.0194606356     2     8     8     4
 0.0368162598     2     8     8     6
 -0.8594487490     3     1     1     3
 0.1833023685     3     1     1     7
 -0.1234785153     3     1     1     8
 -0.0299522985     3     1     2     3
 0.0108177227     3     1     2     7
 -0.0102180563     3     1     2     8
 -0.0104590625     3     1     4     3
 0.0039545656     3     1     4     7
 -0.0033081180     3     1     4     8
 0.0047900320     3     1     6     3
 -0.0057464237     3     1     6     7
 0.0045463304     3     1     6     8
 -0.0032060028     3     1     7     2
 0.0018224054     3     1     7     4
 -0.0025321683     3     1     7     6
 0.0047096462     3     1     8     2
 -0.0060780053     3     1     8     4
 -0.0003762361     3     1     8     6
 -0.0299522985     3     2     1     3
 0.0148359286     3     2     1     7
 -0.0155126602     3     2     1     8
 -0.5247527620     3     2     2     3
 0.0720162176     3     2     2     7
 -0.0215040694     3     2     2     8
 -0.0030399922     3     2     4     3
 -0.0014773431     3     2     4     7
 0.0043295648     3     2     4     8
 0.0687196985     3     2     6     3
 0.0226609351     3     2     6     7
 0.0028807119     3     2     6     8
 0.0032060028     3     2     7     1
 -0.0145958764     3     2     7     4
 0.0401743371     3     2     7     6
 -0.0047096462     3     2     8     1
 0.0383496073     3     2     8     4
 -0.0000555902     3     2     8     6
 0.8594487490     3     3     1     1
 0.0299522985     3     3     1     2
 0.0104590625     3     3     1     4
 -0.0047900320     3     3     1     6
 0.0299522985     3     3     2     1
 0.5247527620     3     3     2     2
 0.0030399922     3     3     2     4
 -0.0687196985     3     3     2     6
 0.0104590625     3     3     4     1
 0.0030399922     3     3     4     2
 0.5599427737     3     3     4     4
 0.0367431201     3     3     4     6
 0.5857826733     3     3     5     5
 -0.0047900320     3     3     6     1
 -0.0687196985     3     3     6     2
 0.0367431201     3     3     6     4
 0.3385576907     3     3     6     6
 0.3045231077     3     3     7     7
 -0.0602081402     3     3     7     8
 -0.0602081402     3     3     8     7
 0.4358811691     3     3     8     8
 -0.0104590625     3     4     1     3
 0.0022491973     3     4     1     7
 0.0027347888     3     4     1     8
 -0.0030399922     3     4     2     3
 0.0128152116     3     4     2     7
 -0.0340257082     3     4     2     8
 -0.5599427737     3     4     4     3
 0.0923992591     3     4     4     7
 -0.0522710900     3     4     4     8
 -0.0367431201     3     4     6     3
 0.0022158782     3     4     6     7
 -0.0083031211     3     4     6     8
 -0.0018224054     3     4     7     1
 0.0145958764     3     4     7     2
 -0.0090587323     3     4     7     6
 0.0060780053     3     4     8     1
 -0.0383496073     3     4     8     2
 -0.0026271779     3     4     8     6
 -0.5857826733     3     5     5     3
 0.0954281854     3     5     5     7
 -0.0429572810     3     5     5     8
 0.0047900320     3     6     1     3
 -0.0030313369     3     6     1     7
 0.0048357530     3     6     1     8
 0.0687196985     3     6     2     3
 -0.0157630768     3     6     2     7
 0.0015085923     3     6     2     8
 -0.0367431201     3     6     4     3
 0.0097901915     3     6     4     7
 -0.0042109017     3     6     4     8
 -0.3385576907     3     6     6     3
 0.0341833498     3     6     6     7
 0.0176547122     3     6     6     8
 0.0025321683     3     6     7     1
 -0.0401743371     3     6     7     2
 0.0090587323     3     6     7     4
 0.0003762361     3     6     8     1
 0.0000555902     3     6     8     2
 0.0026271779     3     6     8     4
 -0.1833023685     3     7     1     1
 -0.0148359286     3     7     1     2
 -0.0022491973     3     7     1     4
 0.0030313369     3     7     1     6
 -0.0108177227     3     7     2     1
 -0.0720162176     3     7     2     2
 -0.0128152116     3     7     2     4
 0.0157630768     3     7     2     6
 -0.0039545656     3     7     4     1
 0.0014773431     3     7     4     2
 -0.0923992591     3     7     4     4
 -0.0097901915     3     7     4     6
 -0.0954281854     3     7     5     5
 0.0057464237     3     7     6     1
 -0.0226609351     3     7     6     2
 -0.0022158782     3     7     6     4
 -0.0341833498     3     7     6     6
 -0.3045231077     3     7     7     3
 0.0289865460     3     7     7     8
 0.0602081402     3     7     8     3
 -0.0339862187     3     7     8     8
 0.1234785153     3     8     1     1
 0.0155126602     3     8     1     2
 -0.0027347888     3     8     1     4
 -0.0048357530     3     8     1     6
 0.0102180563     3     8     2     1
 0.0215040694     3     8     2     2
 0.0340257082     3     8     2     4
 -0.0015085923     3     8     2     6
 0.0033081180     3     8     4     1
 -0.0043295648     3     8     4     2
 0.0522710900     3     8     4     4
 0.0042109017     3     8     4     6
 0.0429572810     3     8     5     5
 -0.0045463304     3     8     6     1
 -0.0028807119     3     8     6     2
 0.0083031211     3     8     6     4
 -0.0176547122     3     8     6     6
 0.0602081402     3     8     7     3
 -0.0289865460     3     8     7     7
 -0.4358811691     3     8     8     3
 0.0339862187     3     8     8     7
 -0.0716492370     4     1     1     2
 -0.9526301569     4     1     1     4
 -0.0825902336     4     1     1     6
 0.0068295004     4     1     2     2
 -0.0353766568     4     1     2     4
 -0.0080294426     4     1     2     6
 0.0104590625     4     1     3     3
 -0.0039545656     4     1     3     7
 0.0033081180     4     1     3     8
 0.0139513293     4     1     5     5
 0.0001711189     4     1     6     2
 0.0107312435     4     1     6     4
 0.0054893050     4     1     6     6
 -0.0022491973     4     1     7     3
 0.0038718187     4     1     7     7
 -0.0040477925     4     1     7     8
 -0.0027347888     4     1     8     3
 -0.0016203280     4     1     8     7
 0.0061098952     4     1     8     8
 0.0716492370     4     2     1     1
 -0.0353766568     4     2     1     4
 -0.0087397599     4     2     1     6
 -0.0068295004     4     2     2     1
 -0.5521406005     4     2     2     4
 -0.0344347962     4     2     2     6
 0.0030399922     4     2     3     3
 0.0014773431     4     2     3     7
 -0.0043295648     4     2     3     8
 0.0067002344     4     2     5     5
 -0.0001711189     4     2     6     1
 0.0690804976     4     2     6     4
 -0.0118897259     4     2     6     6
 -0.0128152116     4     2     7     3
 -0.0143380839     4     2     7     7
 0.0046407238     4     2     7     8
 0.0340257082     4     2     8     3
 -0.0039168642     4     2     8     7
 -0.0194606356     4     2     8     8
 -0.0018224054     4     3     1     7
 0.0060780053     4     3     1     8
 0.0145958764     4     3     2     7
 -0.0383496073     4     3     2     8
 -0.0104590625     4     3     3     1
 -0.0030399922     4     3     3     2
 -0.5599427737     4     3     3     4
 -0.0367431201     4     3     3     6
 -0.0090587323     4     3     6     7
 -0.0026271779     4     3     6     8
 0.0022491973     4     3     7     1
 0.0128152116     4     3     7     2
 0.0923992591     4     3     7     4
 0.0022158782     4     3     7     6
 0.0027347888     4     3     8     1
 -0.0340257082     4     3     8     2
 -0.0522710900     4     3     8     4
 -0.0083031211     4     3     8     6
 0.9526301569     4     4     1     1
 0.0353766568     4     4     1     2
 -0.0107312435     4     4     1     6
 0.0353766568     4     4     2     1
 0.5521406005     4     4     2     2
 -0.0690804976     4     4     2     6
 0.5599427737     4     4     3     3
 -0.0923992591     4     4     3     7
 0.0522710900     4     4     3     8
 0.6132720019     4     4     5     5
 -0.0107312435     4     4     6     1
 -0.0690804976     4     4     6     2
 0.3220222054     4     4     6     6
 -0.0923992591     4     4     7     3
 0.3154513754     4     4     7     7
 -0.0778244799     4     4     7     8
 0.0522710900     4     4     8     3
 -0.0778244799     4     4     8     7
 0.4271154175     4     4     8     8
 -0.0139513293     4     5     5     1
 -0.0067002344     4     5     5     2
 -0.6132720019     4     5     5     4
 -0.0455820262     4     5     5     6
 0.0825902336     4     6     1     1
 0.0087397599     4     6     1     2
 0.0107312435     4     6     1     4
 0.0080294426     4     6     2     1
 0.0344347962     4     6     2     2
 0.0690804976     4     6     2     4
 0.0367431201     4     6     3     3
 -0.0097901915     4     6     3     7
 0.0042109017     4     6     3     8
 0.0455820262     4     6     5     5
 -0.0054893050     4     6     6     1
 0.0118897259     4     6     6     2
 -0.3220222054     4     6     6     4
 -0.0022158782     4     6     7     3
 0.0145850621     4     6     7     7
 -0.0353236241     4     6     7     8
 0.0083031211     4     6     8     3
 -0.0063042398     4     6     8     7
 0.0149178075     4     6     8     8
 0.0018224054     4     7     1     3
 -0.0023774885     4     7     1     8
 -0.0145958764     4     7     2     3
 0.0076897574     4     7     2     8
 0.0039545656     4     7     3     1
 -0.0014773431     4     7     3     2
 0.0923992591     4     7     3     4
 0.0097901915     4     7     3     6
 0.0090587323     4     7     6     3
 -0.0291127402     4     7     6     8
 -0.0038718187     4     7     7     1
 0.0143380839     4     7     7     2
 -0.3154513754     4     7     7     4
 -0.0145850621     4     7     7     6
 0.0016203280     4     7     8     1
 0.0039168642     4     7     8     2
 0.0778244799     4     7     8     4
 0.0063042398     4     7     8     6
 -0.0060780053     4     8     1     3
 0.0023774885     4     8     1     7
 0.0383496073     4     8     2     3
 -0.0076897574     4     8     2     7
 -0.0033081180     4     8     3     1
 0.0043295648     4     8     3     2
 -0.0522710900     4     8     3     4
 -0.0042109017     4     8     3     6
 0.0026271779     4     8     6     3
 0.0291127402     4     8     6     7
 0.0040477925     4     8     7     1
 -0.0046407238     4     8     7     2
 0.0778244799     4     8     7     4
 0.0353236241     4     8     7     6
 -0.0061098952     4     8     8     1
 0.0194606356     4     8     8     2
 -0.4271154175     4     8     8     4
 -0.0149178075     4     8     8     6
 -1.0053472257     5     1     1     5
 -0.0407938261     5     1     2     5
 -0.0139513293     5     1     4     5
 0.0102270979     5     1     6     5
 -0.0407938261     5     2     1     5
 -0.5825920922     5     2     2     5
 -0.0067002344     5     2     4     5
 0.0665349909     5     2     6     5
 -0.5857826733     5     3     3     5
 0.0954281854     5     3     7     5
 -0.0429572810     5     3     8     5
 -0.0139513293     5     4     1     5
 -0.0067002344     5     4     2     5
 -0.6132720019     5     4     4     5
 -0.0455820262     5     4     6     5
 1.0053472257     5     5     1     1
 0.0407938261     5     5     1     2
 0.0139513293     5     5     1     4
 -0.0102270979     5     5     1     6
 0.0407938261     5     5     2     1
 0.5825920922     5     5     2     2
 0.0067002344     5     5     2     4
 -0.0665349909     5     5     2     6
 0.5857826733     5     5     3     3
 -0.0954281854     5     5     3     7
 0.0429572810     5     5     3     8
 0.0139513293     5     5     4     1
 0.0067002344     5     5     4     2
 0.6132720019     5     5     4     4
 0.0455820262     5     5     4     6
 -0.0102270979     5     5     6     1
 -0.0665349909     5     5     6     2
 0.0455820262     5     5     6     4
 0.3363210222     5     5     6     6
 -0.0954281854     5     5     7     3
 0.3238304769     5     5     7     7
 -0.0877623824     5     5     7     8
 0.0429572810     5     5     8     3
 -0.0877623824     5     5     8     7
 0.4545727062     5     5     8     8
 0.0102270979     5     6     1     5
 0.0665349909     5     6     2     5
 -0.0455820262     5     6     4     5
 -0.3363210222     5     6     6     5
 0.0954281854     5     7     3     5
 -0.3238304769     5     7     7     5
 0.0877623824     5     7     8     5
 -0.0429572810     5     8     3     5
 0.0877623824     5     8     7     5
 -0.4545727062     5     8     8     5
 0.1488092340     6     1     1     2
 -0.0825902336     6     1     1     4
 -0.3990918759     6     1     1     6
 0.0015292096     6     1     2     2
 -0.0087397599     6     1     2     4
 -0.0028642407     6     1     2     6
 -0.0047900320     6     1     3     3
 0.0057464237     6     1     3     7
 -0.0045463304     6     1     3     8
 -0.0001711189     6     1     4     2
 -0.0107312435     6     1     4     4
 -0.0054893050     6     1     4     6
 -0.0102270979     6     1     5     5
 0.0030313369     6     1     7     3
 -0.0028691942     6     1     7     7
 0.0019710909     6     1     7     8
 -0.0048357530     6     1     8     3
 0.0033927232     6     1     8     7
 -0.0011120079     6     1     8     8
 -0.1488092340     6     2     1     1
 -0.0080294426     6     2     1     4
 -0.0028642407     6     2     1     6
 -0.0015292096     6     2     2     1
 -0.0344347962     6     2     2     4
 -0.3346372150     6     2     2     6
 -0.0687196985     6     2     3     3
 -0.0226609351     6     2     3     7
 -0.0028807119     6     2     3     8
 0.0001711189     6     2     4     1
 -0.0690804976     6     2     4     4
 0.0118897259     6     2     4     6
 -0.0665349909     6     2     5     5
 0.0157630768     6     2     7     3
 -0.0134575157     6     2     7     7
 0.0120930350     6     2     7     8
 -0.0015085923     6     2     8     3
 0.0214059978     6     2     8     7
 -0.0368162598     6     2     8     8
 0.0025321683     6     3     1     7
 0.0003762361     6     3     1     8
 -0.0401743371     6     3     2     7
 0.0000555902     6     3     2     8
 0.0047900320     6     3     3     1
 0.0687196985     6     3     3     2
 -0.0367431201     6     3     3     4
 -0.3385576907     6     3     3     6
 0.0090587323     6     3     4     7
 0.0026271779     6     3     4     8
 -0.0030313369     6     3     7     1
 -0.0157630768     6     3     7     2
 0.0097901915     6     3     7     4
 0.0341833498     6     3     7     6
 0.0048357530     6     3     8     1
 0.0015085923     6     3     8     2
 -0.0042109017     6     3     8     4
 0.0176547122     6     3     8     6
 0.0825902336     6     4     1     1
 0.0080294426     6     4     1     2
 -0.0054893050     6     4     1     6
 0.0087397599     6     4     2     1
 0.0344347962     6     4     2     2
 0.0118897259     6     4     2     6
 0.0367431201     6     4     3     3
 -0.0022158782     6     4     3     7
 0.0083031211     6     4     3     8
 0.0107312435     6     4     4     1
 0.0690804976     6     4     4     2
 -0.3220222054     6     4     4     6
 0.0455820262     6     4     5     5
 -0.0097901915     6     4     7     3
 0.0145850621     6     4     7     7
 -0.0063042398     6     4     7     8
 0.0042109017     6     4     8     3
 -0.0353236241     6     4     8     7
 0.0149178075     6     4     8     8
 0.0102270979     6     5     5     1
 0.0665349909     6     5     5     2
 -0.0455820262     6     5     5     4
 -0.3363210222     6     5     5     6
 0.3990918759     6     6     1     1
 0.0028642407     6     6     1     2
 0.0054893050     6     6     1     4
 0.0028642407     6     6     2     1
 0.3346372150     6     6     2     2
 -0.0118897259     6     6     2     4
 0.3385576907     6     6     3     3
 -0.0341833498     6     6     3     7
 -0.0176547122     6     6     3     8
 0.0054893050     6     6     4     1
 -0.0118897259     6     6     4     2
 0.3220222054     6     6     4     4
 0.3363210222     6     6     5     5
 -0.0341833498     6     6     7     3
 0.2150710270     6     6     7     7
 -0.0324739484     6     6     7     8
 -0.0176547122     6     6     8     3
 -0.0324739484     6     6     8     7
 0.3181514619     6     6     8     8
 -0.0025321683     6     7     1     3
 -0.0014244840     6     7     1     8
 0.0401743371     6     7     2     3
 -0.0094827286     6     7     2     8
 -0.0057464237     6     7     3     1
 0.0226609351     6     7     3     2
 0.0022158782     6     7     3     4
 0.0341833498     6     7     3     6
 -0.0090587323     6     7     4     3
 0.0291127402     6     7     4     8
 0.0028691942     6     7     7     1
 0.0134575157     6     7     7     2
 -0.0145850621     6     7     7     4
 -0.2150710270     6     7     7     6
 -0.0033927232     6     7     8     1
 -0.0214059978     6     7     8     2
 0.0353236241     6     7     8     4
 0.0324739484     6     7     8     6
 -0.0003762361     6     8     1     3
 0.0014244840     6     8     1     7
 -0.0000555902     6     8     2     3
 0.0094827286     6     8     2     7
 0.0045463304     6     8     3     1
 0.0028807119     6     8     3     2
 -0.0083031211     6     8     3     4
 0.0176547122     6     8     3     6
 -0.0026271779     6     8     4     3
 -0.0291127402     6     8     4     7
 -0.0019710909     6     8     7     1
 -0.0120930350     6     8     7     2
 0.0063042398     6     8     7     4
 0.0324739484     6     8     7     6
 0.0011120079     6     8     8     1
 0.0368162598     6     8     8     2
 -0.0149178075     6     8     8     4
 -0.3181514619     6     8     8     6
 0.1833023685     7     1     1     3
 -0.3924376098     7     1     1     7
 0.1544106940     7     1     1     8
 0.0148359286     7     1     2     3
 -0.0073351209     7     1     2     7
 0.0064687040     7     1     2     8
 0.0032060028     7     1     3     2
 -0.0018224054     7     1     3     4
 0.0025321683     7     1     3     6
 0.0022491973     7     1     4     3
 -0.0038718187     7     1     4     7
 0.0040477925     7     1     4     8
 -0.0030313369     7     1     6     3
 0.0028691942     7     1     6     7
 -0.0019710909     7     1     6     8
 -0.0008745041     7     1     8     2
 0.0023774885     7     1     8     4
 0.0014244840     7     1     8     6
 0.0108177227     7     2     1     3
 -0.0073351209     7     2     1     7
 0.0074236466     7     2     1     8
 0.0720162176     7     2     2     3
 -0.3279143680     7     2     2     7
 0.0855789980     7     2     2     8
 -0.0032060028     7     2     3     1
 0.0145958764     7     2     3     4
 -0.0401743371     7     2     3     6
 0.0128152116     7     2     4     3
 0.0143380839     7     2     4     7
 -0.0046407238     7     2     4     8
 -0.0157630768     7     2     6     3
 0.0134575157     7     2     6     7
 -0.0120930350     7     2     6     8
 0.0008745041     7     2     8     1
 -0.0076897574     7     2     8     4
 0.0094827286     7     2     8     6
 -0.1833023685     7     3     1     1
 -0.0108177227     7     3     1     2
 -0.0039545656     7     3     1     4
 0.0057464237     7     3     1     6
 -0.0148359286     7     3     2     1
 -0.0720162176     7     3     2     2
 0.0014773431     7     3     2     4
 -0.0226609351     7     3     2     6
 -0.3045231077     7     3     3     7
 0.0602081402     7     3     3     8
 -0.0022491973     7     3     4     1
 -0.0128152116     7     3     4     2
 -0.0923992591     7     3     4     4
 -0.0022158782     7     3     4     6
 -0.0954281854     7     3     5     5
 0.0030313369     7     3     6     1
 0.0157630768     7     3     6     2