&FCI NORB=  7,NELEC=  6,MS2=0,
 ORBSYM=1,1,1,1,1,1,1
 ISYM=1,
&END
 0.2009933411     1     1     2     2
 -0.0269212649     1     1     2     4
 -0.0008192543     1     1     2     6
 0.2434456497     1     1     3     3
 -0.0385563073     1     1     3     5
 -0.0095121262     1     1     3     7
 -0.0269212649     1     1     4     2
 0.2389271914     1     1     4     4
 -0.0511845002     1     1     4     6
 -0.0385563073     1     1     5     3
 0.1848530927     1     1     5     5
 -0.0022837094     1     1     5     7
 -0.0008192543     1     1     6     2
 -0.0511845002     1     1     6     4
 0.1871540408     1     1     6     6
 -0.0095121262     1     1     7     3
 -0.0022837094     1     1     7     5
 0.2377339940     1     1     7     7
 -0.2009933411     1     2     2     1
 0.0677143631     1     2     2     3
 -0.0057220447     1     2     2     5
 -0.0106857914     1     2     2     7
 0.0555242052     1     2     3     4
 -0.0263905879     1     2     3     6
 0.0269212649     1     2     4     1
 0.0165922425     1     2     4     3
 0.0447806564     1     2     4     5
 0.0140145544     1     2     4     7
 0.0311654717     1     2     5     4
 0.0353882810     1     2     5     6
 0.0008192543     1     2     6     1
 -0.0156245846     1     2     6     3
 0.0284207241     1     2     6     5
 -0.0171808425     1     2     6     7
 0.0075219552     1     2     7     4
 -0.0155929380     1     2     7     6
 -0.0677143631     1     3     2     2
 0.0389319627     1     3     2     4
 -0.0107660033     1     3     2     6
 -0.2434456497     1     3     3     1
 0.0281542273     1     3     3     5
 -0.0060325826     1     3     3     7
 -0.0165922425     1     3     4     2
 -0.0059426164     1     3     4     4
 0.0178404942     1     3     4     6
 0.0385563073     1     3     5     1
 0.0043270751     1     3     5     5
 0.0068784441     1     3     5     7
 0.0156245846     1     3     6     2
 0.0053709751     1     3     6     4
 0.0020594794     1     3     6     6
 0.0000000001     1     3     6     7
 0.0095121262     1     3     7     1
 0.0026563218     1     3     7     5
 -0.0250065453     1     3     7     7
 0.0269212649     1     4     2     1
 -0.0389319627     1     4     2     3
 0.0136151847     1     4     2     5
 0.0064925992     1     4     2     7
 -0.0555242052     1     4     3     2
 0.0124695191     1     4     3     6
 -0.2389271914     1     4     4     1
 0.0059426164     1     4     4     3
 0.0049343140     1     4     4     5
 -0.0138960576     1     4     4     7
 -0.0311654717     1     4     5     2
 0.0038003304     1     4     5     6
 0.0511845002     1     4     6     1
 -0.0053709751     1     4     6     3
 -0.0022714887     1     4     6     5
 0.0100878370     1     4     6     7
 -0.0075219552     1     4     7     2
 0.0055795575     1     4     7     6
 0.0000000001     1     4     7     7
 0.0057220447     1     5     2     2
 -0.0136151847     1     5     2     4
 0.0069675569     1     5     2     6
 0.0385563073     1     5     3     1
 -0.0281542273     1     5     3     3
 0.0042221223     1     5     3     7
 -0.0447806564     1     5     4     2
 -0.0049343140     1     5     4     4
 0.0060718191     1     5     4     6
 -0.1848530927     1     5     5     1
 -0.0043270751     1     5     5     3
 -0.0075813413     1     5     5     7
 -0.0284207241     1     5     6     2
 0.0022714887     1     5     6     4
 -0.0020232923     1     5     6     6
 0.0022837094     1     5     7     1
 -0.0026563218     1     5     7     3
 0.0000000001     1     5     7     6
 -0.0041796556     1     5     7     7
 0.0008192543     1     6     2     1
 0.0107660033     1     6     2     3
 -0.0069675569     1     6     2     5
 -0.0015879045     1     6     2     7
 0.0263905879     1     6     3     2
 -0.0124695191     1     6     3     4
 0.0000000001     1     6     3     7
 0.0511845002     1     6     4     1
 -0.0178404942     1     6     4     3
 -0.0060718191     1     6     4     5
 0.0045082795     1     6     4     7
 -0.0353882810     1     6     5     2
 -0.0038003304     1     6     5     4
 -0.0000000001     1     6     5     7
 -0.1871540408     1     6     6     1
 -0.0020594794     1     6     6     3
 0.0020232923     1     6     6     5
 -0.0072399269     1     6     6     7
 0.0155929380     1     6     7     2
 -0.0055795575     1     6     7     4
 -0.0000000001     1     6     7     5
 0.0106857914     1     7     2     2
 -0.0064925992     1     7     2     4
 0.0015879045     1     7     2     6
 0.0095121262     1     7     3     1
 0.0060325826     1     7     3     3
 -0.0042221223     1     7     3     5
 -0.0000000001     1     7     3     6
 -0.0140145544     1     7     4     2
 0.0138960576     1     7     4     4
 -0.0045082795     1     7     4     6
 0.0022837094     1     7     5     1
 -0.0068784441     1     7     5     3
 0.0075813413     1     7     5     5
 0.0000000001     1     7     5     6
 0.0171808425     1     7     6     2
 -0.0000000001     1     7     6     3
 -0.0100878370     1     7     6     4
 0.0072399269     1     7     6     6
 -0.2377339940     1     7     7     1
 0.0250065453     1     7     7     3
 -0.0000000001     1     7     7     4
 0.0041796556     1     7     7     5
 -0.2009933411     2     1     1     2
 0.0269212649     2     1     1     4
 0.0008192543     2     1     1     6
 0.0677143631     2     1     3     2
 0.0165922425     2     1     3     4
 -0.0156245846     2     1     3     6
 0.0555242052     2     1     4     3
 0.0311654717     2     1     4     5
 0.0075219552     2     1     4     7
 -0.0057220447     2     1     5     2
 0.0447806564     2     1     5     4
 0.0284207241     2     1     5     6
 -0.0263905879     2     1     6     3
 0.0353882810     2     1     6     5
 -0.0155929380     2     1     6     7
 -0.0106857914     2     1     7     2
 0.0140145544     2     1     7     4
 -0.0171808425     2     1     7     6
 0.2009933411     2     2     1     1
 -0.0677143631     2     2     1     3
 0.0057220447     2     2     1     5
 0.0106857914     2     2     1     7
 -0.0677143631     2     2     3     1
 0.2030532407     2     2     3     3
 -0.0145647308     2     2     3     5
 -0.0101966681     2     2     3     7
 0.2214433491     2     2     4     4
 -0.0335175528     2     2     4     6
 0.0057220447     2     2     5     1
 -0.0145647308     2     2     5     3
 0.1870410215     2     2     5     5
 0.0008310260     2     2     5     7
 -0.0335175528     2     2     6     4
 0.1867703786     2     2     6     6
 0.0106857914     2     2     7     1
 -0.0101966681     2     2     7     3
 0.0008310260     2     2     7     5
 0.2107567432     2     2     7     7
 0.0677143631     2     3     1     2
 -0.0389319627     2     3     1     4
 0.0107660033     2     3     1     6
 -0.2030532407     2     3     3     2
 0.0741321429     2     3     3     4
 -0.0174702123     2     3     3     6
 -0.0555242052     2     3     4     1
 0.0551497557     2     3     4     5
 0.0063135708     2     3     4     7
 0.0145647308     2     3     5     2
 0.0279552123     2     3     5     4
 0.0415913844     2     3     5     6
 0.0263905879     2     3     6     1
 0.0277877670     2     3     6     5
 -0.0000000001     2     3     6     6
 -0.0119385556     2     3     6     7
 0.0101966681     2     3     7     2
 0.0001151336     2     3     7     4
 -0.0103025899     2     3     7     6
 -0.0269212649     2     4     1     1
 0.0389319627     2     4     1     3
 -0.0136151847     2     4     1     5
 -0.0064925992     2     4     1     7
 -0.0165922425     2     4     3     1
 -0.0741321429     2     4     3     3
 0.0271945434     2     4     3     5
 0.0061984372     2     4     3     7
 -0.2214433491     2     4     4     2
 0.0281621545     2     4     4     6
 -0.0447806564     2     4     5     1
 -0.0279552123     2     4     5     3
 0.0060003669     2     4     5     5
 -0.0015001981     2     4     5     7
 0.0335175528     2     4     6     2
 -0.0004099997     2     4     6     6
 0.0000000001     2     4     6     7
 -0.0140145544     2     4     7     1
 -0.0001151336     2     4     7     3
 0.0015262360     2     4     7     5
 -0.0297842835     2     4     7     7
 -0.0057220447     2     5     1     2
 0.0136151847     2     5     1     4
 -0.0069675569     2     5     1     6
 0.0145647308     2     5     3     2
 -0.0271945434     2     5     3     4
 0.0138036174     2     5     3     6
 -0.0311654717     2     5     4     1
 -0.0551497557     2     5     4     3
 -0.0030264341     2     5     4     7
 -0.1870410215     2     5     5     2
 -0.0060003669     2     5     5     4
 0.0119527403     2     5     5     6
 -0.0353882810     2     5     6     1
 -0.0277877670     2     5     6     3
 0.0008014732     2     5     6     7
 -0.0008310260     2     5     7     2
 -0.0015262360     2     5     7     4
 0.0042467807     2     5     7     6
 0.0000000001     2     5     7     7
 -0.0008192543     2     6     1     1
 -0.0107660033     2     6     1     3
 0.0069675569     2     6     1     5
 0.0015879045     2     6     1     7
 0.0156245846     2     6     3     1
 0.0174702123     2     6     3     3
 -0.0138036174     2     6     3     5
 -0.0016359657     2     6     3     7
 0.0335175528     2     6     4     2
 -0.0281621545     2     6     4     4
 0.0000000001     2     6     4     7
 -0.0284207241     2     6     5     1
 -0.0415913844     2     6     5     3
 -0.0119527403     2     6     5     5
 -0.0034453075     2     6     5     7
 -0.1867703786     2     6     6     2
 0.0000000001     2     6     6     3
 0.0004099997     2     6     6     4
 0.0000000004     2     6     6     7
 0.0171808425     2     6     7     1
 0.0103025899     2     6     7     3
 -0.0042467807     2     6     7     5
 0.0018644914     2     6     7     7
 -0.0106857914     2     7     1     2
 0.0064925992     2     7     1     4
 -0.0015879045     2     7     1     6
 0.0101966681     2     7     3     2
 -0.0061984372     2     7     3     4
 0.0016359657     2     7     3     6
 -0.0075219552     2     7     4     1
 -0.0063135708     2     7     4     3
 0.0030264341     2     7     4     5
 -0.0000000001     2     7     4     6
 -0.0008310260     2     7     5     2
 0.0015001981     2     7     5     4
 0.0034453075     2     7     5     6
 0.0155929380     2     7     6     1
 0.0119385556     2     7     6     3
 -0.0000000001     2     7     6     4
 -0.0008014732     2     7     6     5
 -0.0000000004     2     7     6     6
 -0.2107567432     2     7     7     2
 0.0297842835     2     7     7     4
 -0.0000000001     2     7     7     5
 -0.0018644914     2     7     7     6
 -0.2434456497     3     1     1     3
 0.0385563073     3     1     1     5
 0.0095121262     3     1     1     7
 -0.0677143631     3     1     2     2
 -0.0165922425     3     1     2     4
 0.0156245846     3     1     2     6
 0.0389319627     3     1     4     2
 -0.0059426164     3     1     4     4
 0.0053709751     3     1     4     6
 0.0281542273     3     1     5     3
 0.0043270751     3     1     5     5
 0.0026563218     3     1     5     7
 -0.0107660033     3     1     6     2
 0.0178404942     3     1     6     4
 0.0020594794     3     1     6     6
 -0.0060325826     3     1     7     3
 0.0068784441     3     1     7     5
 0.0000000001     3     1     7     6
 -0.0250065453     3     1     7     7
 -0.0555242052     3     2     1     4
 0.0263905879     3     2     1     6
 0.0677143631     3     2     2     1
 -0.2030532407     3     2     2     3
 0.0145647308     3     2     2     5
 0.0101966681     3     2     2     7
 -0.0389319627     3     2     4     1
 0.0741321429     3     2     4     3
 0.0279552123     3     2     4     5
 0.0001151336     3     2     4     7
 0.0551497557     3     2     5     4
 0.0277877670     3     2     5     6
 0.0107660033     3     2     6     1
 -0.0174702123     3     2     6     3
 0.0415913844     3     2     6     5
 -0.0000000001     3     2     6     6
 -0.0103025899     3     2     6     7
 0.0063135708     3     2     7     4
 -0.0119385556     3     2     7     6
 0.2434456497     3     3     1     1
 -0.0281542273     3     3     1     5
 0.0060325826     3     3     1     7
 0.2030532407     3     3     2     2
 -0.0741321429     3     3     2     4
 0.0174702123     3     3     2     6
 -0.0741321429     3     3     4     2
 0.2160663189     3     3     4     4
 -0.0259596629     3     3     4     6
 -0.0281542273     3     3     5     1
 0.1816744267     3     3     5     5
 -0.0057542795     3     3     5     7
 0.0174702123     3     3     6     2
 -0.0259596629     3     3     6     4
 0.1799127399     3     3     6     6
 0.0060325826     3     3     7     1
 -0.0057542795     3     3     7     5
 0.2115033512     3     3     7     7
 0.0555242052     3     4     1     2
 -0.0124695191     3     4     1     6
 0.0165922425     3     4     2     1
 0.0741321429     3     4     2     3
 -0.0271945434     3     4     2     5
 -0.0061984372     3     4     2     7
 0.0059426164     3     4     4     1
 -0.2160663189     3     4     4     3
 0.0608386730     3     4     4     5
 -0.0000000001     3     4     4     6
 0.0144194132     3     4     4     7
 -0.0551497557     3     4     5     2
 0.0484117299     3     4     5     6
 -0.0178404942     3     4     6     1
 0.0259596629     3     4     6     3
 0.0159401875     3     4     6     5
 -0.0000000003     3     4     6     6
 -0.0153705427     3     4     6     7
 -0.0063135708     3     4     7     2
 -0.0070980758     3     4     7     6
 -0.0385563073     3     5     1     1
 0.0281542273     3     5     1     3
 -0.0042221223     3     5     1     7
 -0.0145647308     3     5     2     2
 0.0271945434     3     5     2     4
 -0.0138036174     3     5     2     6
 -0.0279552123     3     5     4     2
 -0.0608386730     3     5     4     4
 0.0324715424     3     5     4     6
 -0.0043270751     3     5     5     1
 -0.1816744267     3     5     5     3
 -0.0000000002     3     5     5     6
 0.0013495796     3     5     5     7
 -0.0415913844     3     5     6     2
 -0.0159401875     3     5     6     4
 0.0042879950     3     5     6     6
 -0.0000000001     3     5     6     7
 -0.0068784441     3     5     7     1
 0.0057542795     3     5     7     3
 -0.0000000003     3     5     7     6
 -0.0260386840     3     5     7     7
 -0.0263905879     3     6     1     2
 0.0124695191     3     6     1     4
 -0.0000000001     3     6     1     7
 -0.0156245846     3     6     2     1
 -0.0174702123     3     6     2     3
 0.0138036174     3     6     2     5
 0.0016359657     3     6     2     7
 -0.0053709751     3     6     4     1
 0.0259596629     3     6     4     3
 0.0000000001     3     6     4     4
 -0.0324715424     3     6     4     5
 -0.0082724669     3     6     4     7
 -0.0277877670     3     6     5     2
 -0.0484117299     3     6     5     4
 0.0000000002     3     6     5     5
 0.0000000002     3     6     5     7
 -0.0020594794     3     6     6     1
 0.0000000001     3     6     6     2
 -0.1799127399     3     6     6     3
 0.0000000003     3     6     6     4
 -0.0042879950     3     6     6     5
 0.0059453573     3     6     6     7
 -0.0000000001     3     6     7     1
 0.0119385556     3     6     7     2
 0.0070980758     3     6     7     4
 0.0000000003     3     6     7     5
 0.0000000005     3     6     7     7
 -0.0095121262     3     7     1     1
 -0.0060325826     3     7     1     3
 0.0042221223     3     7     1     5
 0.0000000001     3     7     1     6
 -0.0101966681     3     7     2     2
 0.0061984372     3     7     2     4
 -0.0016359657     3     7     2     6
 -0.0001151336     3     7     4     2
 -0.0144194132     3     7     4     4
 0.0082724669     3     7     4     6
 -0.0026563218     3     7     5     1
 0.0057542795     3     7     5     3
 -0.0013495796     3     7     5     5
 -0.0000000002     3     7     5     6
 0.0103025899     3     7     6     2
 0.0153705427     3     7     6     4
 0.0000000001     3     7     6     5
 -0.0059453573     3     7     6     6
 0.0250065453     3     7     7     1
 -0.2115033512     3     7     7     3
 0.0260386840     3     7     7     5
 -0.0000000005     3     7     7     6
 0.0269212649     4     1     1     2
 -0.2389271914     4     1     1     4
 0.0511845002     4     1     1     6
 -0.0555242052     4     1     2     3
 -0.0311654717     4     1     2     5
 -0.0075219552     4     1     2     7
 -0.0389319627     4     1     3     2
 0.0059426164     4     1     3     4
 -0.0053709751     4     1     3     6
 0.0136151847     4     1     5     2
 0.0049343140     4     1     5     4
 -0.0022714887     4     1     5     6
 0.0124695191     4     1     6     3
 0.0038003304     4     1     6     5
 0.0055795575     4     1     6     7
 0.0064925992     4     1     7     2
 -0.0138960576     4     1     7     4
 0.0100878370     4     1     7     6
 0.0000000001     4     1     7     7
 -0.0269212649     4     2     1     1
 -0.0165922425     4     2     1     3
 -0.0447806564     4     2     1     5
 -0.0140145544     4     2     1     7
 -0.2214433491     4     2     2     4
 0.0335175528     4     2     2     6
 0.0389319627     4     2     3     1
 -0.0741321429     4     2     3     3
 -0.0279552123     4     2     3     5
 -0.0001151336     4     2     3     7
 -0.0136151847     4     2     5     1
 0.0271945434     4     2     5     3
 0.0060003669     4     2     5     5
 0.0015262360     4     2     5     7
 0.0281621545     4     2     6     4
 -0.0004099997     4     2     6     6
 -0.0064925992     4     2     7     1
 0.0061984372     4     2     7     3
 -0.0015001981     4     2     7     5
 0.0000000001     4     2     7     6
 -0.0297842835     4     2     7     7
 0.0165922425     4     3     1     2
 0.0059426164     4     3     1     4
 -0.0178404942     4     3     1     6
 0.0555242052     4     3     2     1
 -0.0551497557     4     3     2     5
 -0.0063135708     4     3     2     7
 0.0741321429     4     3     3     2
 -0.2160663189     4     3     3     4
 0.0259596629     4     3     3     6
 -0.0271945434     4     3     5     2
 0.0608386730     4     3     5     4
 0.0159401875     4     3     5     6
 -0.0124695191     4     3     6     1
 -0.0000000001     4     3     6     4
 0.0484117299     4     3     6     5
 -0.0000000003     4     3     6     6
 -0.0070980758     4     3     6     7
 -0.0061984372     4     3     7     2
 0.0144194132     4     3     7     4
 -0.0153705427     4     3     7     6
 0.2389271914     4     4     1     1
 -0.0059426164     4     4     1     3
 -0.0049343140     4     4     1     5
 0.0138960576     4     4     1     7
 0.2214433491     4     4     2     2
 -0.0281621545     4     4     2     6
 -0.0059426164     4     4     3     1
 0.2160663189     4     4     3     3
 -0.0608386730     4     4     3     5
 0.0000000001     4     4     3     6
 -0.0144194132     4     4     3     7
 -0.0049343140     4     4     5     1
 -0.0608386730     4     4     5     3
 0.1492589594     4     4     5     5
 -0.0067742987     4     4     5     7
 -0.0281621545     4     4     6     2
 0.0000000001     4     4     6     3
 0.1691134602     4     4     6     6
 -0.0000000003     4     4     6     7
 0.0138960576     4     4     7     1
 -0.0144194132     4     4     7     3
 -0.0067742987     4     4     7     5
 -0.0000000003     4     4     7     6
 0.1958921539     4     4     7     7
 0.0447806564     4     5     1     2
 0.0049343140     4     5     1     4
 -0.0060718191     4     5     1     6
 0.0311654717     4     5     2     1
 0.0551497557     4     5     2     3
 0.0030264341     4     5     2     7
 0.0279552123     4     5     3     2
 0.0608386730     4     5     3     4
 -0.0324715424     4     5     3     6
 -0.0060003669     4     5     5     2
 -0.1492589594     4     5     5     4
 0.0519341156     4     5     5     6
 -0.0000000002     4     5     5     7
 -0.0038003304     4     5     6     1
 -0.0484117299     4     5     6     3
 0.0000000005     4     5     6     6
 -0.0176849195     4     5     6     7
 0.0015001981     4     5     7     2
 0.0067742987     4     5     7     4
 -0.0110432100     4     5     7     6
 -0.0000000003     4     5     7     7
 -0.0511845002     4     6     1     1
 0.0178404942     4     6     1     3
 0.0060718191     4     6     1     5
 -0.0045082795     4     6     1     7
 -0.0335175528     4     6     2     2
 0.0281621545     4     6     2     4
 -0.0000000001     4     6     2     7
 0.0053709751     4     6     3     1
 -0.0259596629     4     6     3     3
 -0.0000000001     4     6     3     4
 0.0324715424     4     6     3     5
 0.0082724669     4     6     3     7
 0.0022714887     4     6     5     1
 -0.0159401875     4     6     5     3
 -0.0519341156     4     6     5     5
 -0.0066417095     4     6     5     7
 0.0004099997     4     6     6     2
 0.0000000003     4     6     6     3
 -0.1691134602     4     6     6     4
 -0.0000000005     4     6     6     5
 -0.0000000015     4     6     6     7
 -0.0100878370     4     6     7     1
 -0.0000000001     4     6     7     2
 0.0153705427     4     6     7     3
 0.0000000003     4     6     7     4
 0.0110432100     4     6     7     5
 -0.0312806379     4     6     7     7
 0.0140145544     4     7     1     2
 -0.0138960576     4     7     1     4
 0.0045082795     4     7     1     6
 0.0075219552     4     7     2     1
 0.0063135708     4     7     2     3
 -0.0030264341     4     7     2     5
 0.0000000001     4     7     2     6
 0.0001151336     4     7     3     2
 0.0144194132     4     7     3     4
 -0.0082724669     4     7     3     6
 -0.0015262360     4     7     5     2
 0.0067742987     4     7     5     4
 0.0000000002     4     7     5     5
 0.0066417095     4     7     5     6
 -0.0055795575     4     7     6     1
 0.0070980758     4     7     6     3
 0.0000000003     4     7     6     4
 0.0176849195     4     7     6     5
 0.0000000015     4     7     6     6
 -0.0000000001     4     7     7     1
 0.0297842835     4     7     7     2
 -0.1958921539     4     7     7     4
 0.0000000003     4     7     7     5
 0.0312806379     4     7     7     6
 0.0385563073     5     1     1     3
 -0.1848530927     5     1     1     5
 0.0022837094     5     1     1     7
 0.0057220447     5     1     2     2
 -0.0447806564     5     1     2     4
 -0.0284207241     5     1     2     6
 -0.0281542273     5     1     3     3
 -0.0043270751     5     1     3     5
 -0.0026563218     5     1     3     7
 -0.0136151847     5     1     4     2
 -0.0049343140     5     1     4     4
 0.0022714887     5     1     4     6
 0.0069675569     5     1     6     2
 0.0060718191     5     1     6     4
 -0.0020232923     5     1     6     6
 0.0000000001     5     1     6     7
 0.0042221223     5     1     7     3
 -0.0075813413     5     1     7     5
 -0.0041796556     5     1     7     7
 -0.0311654717     5     2     1     4
 -0.0353882810     5     2     1     6
 -0.0057220447     5     2     2     1
 0.0145647308     5     2     2     3
 -0.1870410215     5     2     2     5
 -0.0008310260     5     2     2     7
 -0.0551497557     5     2     3     4
 -0.0277877670     5     2     3     6
 0.0136151847     5     2     4     1
 -0.0271945434     5     2     4     3
 -0.0060003669     5     2     4     5
 -0.0015262360     5     2     4     7
 -0.0069675569     5     2     6     1
 0.0138036174     5     2     6     3
 0.0119527403     5     2     6     5
 0.0042467807     5     2     6     7
 -0.0030264341     5     2     7     4
 0.0008014732     5     2     7     6
 0.0000000001     5     2     7     7
 -0.0385563073     5     3     1     1
 -0.0043270751     5     3     1     5
 -0.0068784441     5     3     1     7
 -0.0145647308     5     3     2     2
 -0.0279552123     5     3     2     4
 -0.0415913844     5     3     2     6
 0.0281542273     5     3     3     1
 -0.1816744267     5     3     3     5
 0.0057542795     5     3     3     7
 0.0271945434     5     3     4     2
 -0.0608386730     5     3     4     4
 -0.0159401875     5     3     4     6
 -0.0138036174     5     3     6     2
 0.0324715424     5     3     6     4
 -0.0000000002     5     3     6     5
 0.0042879950     5     3     6     6
 -0.0000000003     5     3     6     7
 -0.0042221223     5     3     7     1
 0.0013495796     5     3     7     5
 -0.0000000001     5     3     7     6
 -0.0260386840     5     3     7     7
 0.0311654717     5     4     1     2
 -0.0038003304     5     4     1     6
 0.0447806564     5     4     2     1
 0.0279552123     5     4     2     3
 -0.0060003669     5     4     2     5
 0.0015001981     5     4     2     7
 0.0551497557     5     4     3     2
 -0.0484117299     5     4     3     6
 0.0049343140     5     4     4     1
 0.0608386730     5     4     4     3
 -0.1492589594     5     4     4     5
 0.0067742987     5     4     4     7
 -0.0060718191     5     4     6     1
 -0.0324715424     5     4     6     3
 0.0519341156     5     4     6     5
 0.0000000005     5     4     6     6
 -0.0110432100     5     4     6     7
 0.0030264341     5     4     7     2
 -0.0000000002     5     4     7     5
 -0.0176849195     5     4     7     6
 -0.0000000003     5     4     7     7
 0.1848530927     5     5     1     1
 0.0043270751     5     5     1     3
 0.0075813413     5     5     1     7
 0.1870410215     5     5     2     2
 0.0060003669     5     5     2     4
 -0.0119527403     5     5     2     6
 0.0043270751     5     5     3     1
 0.1816744267     5     5     3     3
 0.0000000002     5     5     3     6
 -0.0013495796     5     5     3     7
 0.0060003669     5     5     4     2
 0.1492589594     5     5     4     4
 -0.0519341156     5     5     4     6
 0.0000000002     5     5     4     7
 -0.0119527403     5     5     6     2
 0.0000000002     5     5     6     3
 -0.0519341156     5     5     6     4
 0.1303290973     5     5     6     6
 0.0000000007     5     5     6     7
 0.0075813413     5     5     7     1
 -0.0013495796     5     5     7     3
 0.0000000002     5     5     7     4
 0.0000000007     5     5     7     6
 0.1568175526     5     5     7     7
 0.0353882810     5     6     1     2
 0.0038003304     5     6     1     4
 0.0000000001     5     6     1     7
 0.0284207241     5     6     2     1
 0.0415913844     5     6     2     3
 0.0119527403     5     6     2     5
 0.0034453075     5     6     2     7
 0.0277877670     5     6     3     2
 0.0484117299     5     6     3     4
 -0.0000000002     5     6     3     5
 -0.0000000002     5     6     3     7
 -0.0022714887     5     6     4     1
 0.0159401875     5     6     4     3
 0.0519341156     5     6     4     5
 0.0066417095     5     6     4     7
 0.0020232923     5     6     6     1
 -0.0042879950     5     6     6     3
 -0.0000000005     5     6     6     4
 -0.1303290973     5     6     6     5
 -0.0097683363     5     6     6     7
 -0.0008014732     5     6     7     2
 0.0000000001     5     6     7     3
 0.0176849195     5     6     7     4
 -0.0000000007     5     6     7     5
 -0.0000000008     5     6     7     7
 -0.0022837094     5     7     1     1
 0.0068784441     5     7     1     3
 -0.0075813413     5     7     1     5
 -0.0000000001     5     7     1     6
 0.0008310260     5     7     2     2
 -0.0015001981     5     7     2     4
 -0.0034453075     5     7     2     6
 0.0026563218     5     7     3     1
 -0.0057542795     5     7     3     3
 0.0013495796     5     7     3     5
 0.0000000002     5     7     3     6
 0.0015262360     5     7     4     2
 -0.0067742987     5     7     4     4
 -0.0000000002     5     7     4     5
 -0.0066417095     5     7     4     6
 -0.0000000001     5     7     6     1
 -0.0042467807     5     7     6     2
 0.0000000003     5     7     6     3
 0.0110432100     5     7     6     4
 -0.0000000007     5     7     6     5
 0.0097683363     5     7     6     6
 0.0041796556     5     7     7     1
 -0.0000000001     5     7     7     2
 0.0260386840     5     7     7     3
 0.0000000003     5     7     7     4
 -0.1568175526     5     7     7     5
 0.0000000008     5     7     7     6
 0.0008192543     6     1     1     2
 0.0511845002     6     1     1     4
 -0.1871540408     6     1     1     6
 0.0263905879     6     1     2     3
 -0.0353882810     6     1     2     5
 0.0155929380     6     1     2     7
 0.0107660033     6     1     3     2
 -0.0178404942     6     1     3     4
 -0.0020594794     6     1     3     6
 -0.0124695191     6     1     4     3
 -0.0038003304     6     1     4     5
 -0.0055795575     6     1     4     7
 -0.0069675569     6     1     5     2
 -0.0060718191     6     1     5     4
 0.0020232923     6     1     5     6
 -0.0000000001     6     1     5     7
 -0.0015879045     6     1     7     2
 0.0000000001     6     1     7     3
 0.0045082795     6     1     7     4
 -0.0000000001     6     1     7     5
 -0.0072399269     6     1     7     6
 -0.0008192543     6     2     1     1
 0.0156245846     6     2     1     3
 -0.0284207241     6     2     1     5
 0.0171808425     6     2     1     7
 0.0335175528     6     2     2     4
 -0.1867703786     6     2     2     6
 -0.0107660033     6     2     3     1
 0.0174702123     6     2     3     3
 -0.0415913844     6     2     3     5
 0.0000000001     6     2     3     6
 0.0103025899     6     2     3     7
 -0.0281621545     6     2     4     4
 0.0004099997     6     2     4     6
 0.0069675569     6     2     5     1
 -0.0138036174     6     2     5     3
 -0.0119527403     6     2     5     5
 -0.0042467807     6     2     5     7
 0.0015879045     6     2     7     1
 -0.0016359657     6     2     7     3
 0.0000000001     6     2     7     4