&FCI NORB= 16,NELEC= 10,MS2=0,
 ORBSYM=1,1,1,1,1,1,1,1,1,1,1,1,1,1,1,1
 ISYM=1,
&END
 0.9854741821     1     1     2     2
 -0.0676781067     1     1     2     4
 0.1073611343     1     1     2     6
 -0.0540989064     1     1     2     8
 -0.1111439870     1     1     2    11
 -0.0541950848     1     1     2    13
 -0.1446400417     1     1     2    16
 0.8719993787     1     1     3     3
 0.1190413225     1     1     3     7
 -0.0465528857     1     1     3     9
 0.2265030177     1     1     3    12
 -0.0676781067     1     1     4     2
 0.9527218804     1     1     4     4
 0.0604328522     1     1     4     6
 0.1248239009     1     1     4     8
 -0.1626099133     1     1     4    11
 -0.0586989789     1     1     4    13
 0.0841134584     1     1     4    16
 0.9986202300     1     1     5     5
 -0.2262880851     1     1     5    10
 0.0561538628     1     1     5    15
 0.1073611343     1     1     6     2
 0.0604328522     1     1     6     4
 0.2794154191     1     1     6     6
 -0.0146706813     1     1     6     8
 -0.1063387963     1     1     6    11
 -0.0476738902     1     1     6    13
 -0.0732636003     1     1     6    16
 0.1190413225     1     1     7     3
 0.2408322900     1     1     7     7
 -0.0303519038     1     1     7     9
 0.1281020447     1     1     7    12
 -0.0540989064     1     1     8     2
 0.1248239009     1     1     8     4
 -0.0146706813     1     1     8     6
 0.3084767953     1     1     8     8
 -0.0208811142     1     1     8    11
 -0.0203615156     1     1     8    13
 0.0599349271     1     1     8    16
 -0.0465528857     1     1     9     3
 -0.0303519038     1     1     9     7
 0.3135934043     1     1     9     9
 -0.0676032786     1     1     9    12
 -0.2262880851     1     1    10     5
 0.3949414667     1     1    10    10
 -0.0394749130     1     1    10    15
 -0.1111439870     1     1    11     2
 -0.1626099133     1     1    11     4
 -0.1063387963     1     1    11     6
 -0.0208811142     1     1    11     8
 0.4224228955     1     1    11    11
 0.0396027992     1     1    11    13
 0.0096164470     1     1    11    16
 0.2265030177     1     1    12     3
 0.1281020447     1     1    12     7
 -0.0676032786     1     1    12     9
 0.4505000579     1     1    12    12
 -0.0541950848     1     1    13     2
 -0.0586989789     1     1    13     4
 -0.0476738902     1     1    13     6
 -0.0203615156     1     1    13     8
 0.0396027992     1     1    13    11
 0.3355139893     1     1    13    13
 0.0093994749     1     1    13    16
 0.3243181454     1     1    14    14
 0.0561538628     1     1    15     5
 -0.0394749130     1     1    15    10
 0.3313846708     1     1    15    15
 -0.1446400417     1     1    16     2
 0.0841134584     1     1    16     4
 -0.0732636003     1     1    16     6
 0.0599349271     1     1    16     8
 0.0096164470     1     1    16    11
 0.0093994749     1     1    16    13
 0.4079893364     1     1    16    16
 -0.9854741821     1     2     2     1
 -0.0069875274     1     2     2     4
 -0.0010391447     1     2     2     6
 -0.0020514051     1     2     2     8
 0.0033833305     1     2     2    11
 0.0014412177     1     2     2    13
 -0.0011898028     1     2     2    16
 -0.0310531506     1     2     3     3
 -0.0085154492     1     2     3     7
 0.0052478213     1     2     3     9
 -0.0199705372     1     2     3    12
 0.0676781067     1     2     4     1
 -0.0360012465     1     2     4     4
 -0.0054666744     1     2     4     6
 -0.0078246204     1     2     4     8
 0.0144759145     1     2     4    11
 0.0061325070     1     2     4    13
 -0.0046279823     1     2     4    16
 -0.0408589773     1     2     5     5
 0.0170103133     1     2     5    10
 -0.0053492556     1     2     5    15
 -0.1073611343     1     2     6     1
 -0.0052667159     1     2     6     4
 -0.0010030445     1     2     6     6
 -0.0011867112     1     2     6     8
 0.0027486805     1     2     6    11
 0.0011171888     1     2     6    13
 -0.0005133354     1     2     6    16
 -0.0063937203     1     2     7     3
 -0.0021554387     1     2     7     7
 0.0012288627     1     2     7     9
 -0.0052587236     1     2     7    12
 0.0540989064     1     2     8     1
 -0.0057567457     1     2     8     4
 -0.0007916592     1     2     8     6
 -0.0020850614     1     2     8     8
 0.0030565815     1     2     8    11
 0.0009575147     1     2     8    13
 -0.0014370778     1     2     8    16
 0.0035704465     1     2     9     3
 0.0010758429     1     2     9     7
 -0.0008508506     1     2     9     9
 0.0025033933     1     2     9    12
 0.0131473586     1     2    10     5
 -0.0073230167     1     2    10    10
 0.0019538424     1     2    10    15
 0.1111439870     1     2    11     1
 0.0121026298     1     2    11     4
 0.0022994861     1     2    11     6
 0.0035512145     1     2    11     8
 -0.0062251670     1     2    11    11
 -0.0024432278     1     2    11    13
 0.0019241108     1     2    11    16
 -0.0138705904     1     2    12     3
 -0.0048589543     1     2    12     7
 0.0026269576     1     2    12     9
 -0.0111591198     1     2    12    12
 0.0541950848     1     2    13     1
 0.0047166143     1     2    13     4
 0.0008369759     1     2    13     6
 0.0010474142     1     2    13     8
 -0.0022077020     1     2    13    11
 -0.0006950471     1     2    13    13
 0.0005799878     1     2    13    16
 0.0002504333     1     2    14    14
 -0.0035769538     1     2    15     5
 0.0016363610     1     2    15    10
 -0.0003685755     1     2    15    15
 0.1446400417     1     2    16     1
 -0.0022093034     1     2    16     4
 -0.0000869463     1     2    16     6
 -0.0010279906     1     2    16     8
 0.0009621304     1     2    16    11
 0.0002373250     1     2    16    13
 -0.0011058797     1     2    16    16
 -0.0015665802     1     3     2     7
 0.0013942059     1     3     2     9
 -0.0049430198     1     3     2    12
 -0.8719993787     1     3     3     1
 0.0310531506     1     3     3     2
 -0.0106000176     1     3     3     4
 0.0035973660     1     3     3     6
 -0.0036498034     1     3     3     8
 -0.0002359530     1     3     3    11
 -0.0033296304     1     3     3    13
 -0.0091345534     1     3     3    16
 -0.0007203165     1     3     4     7
 0.0028883259     1     3     4     9
 -0.0021896518     1     3     4    12
 0.0026779971     1     3     5    14
 0.0015111601     1     3     6     7
 0.0003274226     1     3     6     9
 0.0012959356     1     3     6    12
 -0.1190413225     1     3     7     1
 0.0063937203     1     3     7     2
 -0.0021932574     1     3     7     4
 0.0027120820     1     3     7     6
 -0.0014586600     1     3     7     8
 -0.0016657650     1     3     7    11
 -0.0004160370     1     3     7    13
 -0.0023912400     1     3     7    16
 -0.0007665800     1     3     8     7
 -0.0007797405     1     3     8     9
 -0.0021515611     1     3     8    12
 0.0465528857     1     3     9     1
 -0.0035704465     1     3     9     2
 0.0011054517     1     3     9     4
 -0.0008839710     1     3     9     6
 -0.0009880237     1     3     9     8
 0.0025982461     1     3     9    11
 0.0014006235     1     3     9    13
 0.0007641852     1     3     9    16
 0.0007872669     1     3    10    14
 -0.0010779617     1     3    11     7
 0.0009743422     1     3    11     9
 -0.0027839207     1     3    11    12
 -0.2265030177     1     3    12     1
 0.0138705904     1     3    12     2
 -0.0046821159     1     3    12     4
 0.0043243900     1     3    12     6
 -0.0035574031     1     3    12     8
 -0.0047013756     1     3    12    11
 -0.0020630227     1     3    12    13
 -0.0067244586     1     3    12    16
 0.0007442631     1     3    13     7
 0.0002414823     1     3    13     9
 0.0008280973     1     3    13    12
 -0.0001582223     1     3    14     5
 0.0021102635     1     3    14    10
 -0.0022119921     1     3    14    15
 -0.0018341427     1     3    15    14
 -0.0000311527     1     3    16     7
 -0.0003331419     1     3    16     9
 -0.0012820907     1     3    16    12
 0.0676781067     1     4     2     1
 0.0069875274     1     4     2     2
 0.0002568042     1     4     2     6
 -0.0015491651     1     4     2     8
 0.0013632809     1     4     2    11
 0.0010113156     1     4     2    13
 -0.0022158528     1     4     2    16
 0.0106000176     1     4     3     3
 0.0016248658     1     4     3     7
 0.0017384322     1     4     3     9
 0.0028023079     1     4     3    12
 -0.9527218804     1     4     4     1
 0.0360012465     1     4     4     2
 0.0069674353     1     4     4     6
 -0.0024215176     1     4     4     8
 -0.0095402419     1     4     4    11
 -0.0014362460     1     4     4    13
 -0.0098169414     1     4     4    16
 0.0137045042     1     4     5     5
 -0.0054917321     1     4     5    10
 -0.0011995916     1     4     5    15
 -0.0604328522     1     4     6     1
 0.0052667159     1     4     6     2
 0.0026459815     1     4     6     6
 0.0006986780     1     4     6     8
 -0.0031756173     1     4     6    11
 -0.0012323929     1     4     6    13
 -0.0016500652     1     4     6    16
 0.0021932574     1     4     7     3
 0.0014742686     1     4     7     7
 -0.0007953899     1     4     7     9
 0.0017684441     1     4     7    12
 -0.1248239009     1     4     8     1
 0.0057567457     1     4     8     2
 0.0025841799     1     4     8     6
 -0.0018578099     1     4     8     8
 -0.0009599739     1     4     8    11
 -0.0018387044     1     4     8    13
 -0.0027122166     1     4     8    16
 -0.0011054517     1     4     9     3
 -0.0015214304     1     4     9     7
 -0.0001219251     1     4     9     9
 -0.0035425978     1     4     9    12
 -0.0045339714     1     4    10     5
 0.0022828751     1     4    10    10
 -0.0014995568     1     4    10    15
 0.1626099133     1     4    11     1
 -0.0121026298     1     4    11     2
 -0.0045419564     1     4    11     6
 0.0021057409     1     4    11     8
 0.0062811269     1     4    11    11
 0.0025729128     1     4    11    13
 0.0050066760     1     4    11    16
 0.0046821159     1     4    12     3
 0.0019322118     1     4    12     7
 -0.0019664990     1     4    12     9
 0.0048457453     1     4    12    12
 0.0586989789     1     4    13     1
 -0.0047166143     1     4    13     2
 -0.0022422217     1     4    13     6
 -0.0011658854     1     4    13     8
 0.0037006246     1     4    13    11
 0.0029913486     1     4    13    13
 0.0011134580     1     4    13    16
 0.0018864180     1     4    14    14
 0.0013146623     1     4    15     5
 -0.0027931475     1     4    15    10
 0.0018473390     1     4    15    15
 -0.0841134584     1     4    16     1
 0.0022093034     1     4    16     2
 0.0007587646     1     4    16     6
 -0.0008661521     1     4    16     8
 -0.0002420969     1     4    16    11
 -0.0007477372     1     4    16    13
 -0.0008993219     1     4    16    16
 0.0027079501     1     5     2    10
 -0.0014745855     1     5     2    15
 0.0029751545     1     5     3    14
 -0.0006417971     1     5     4    10
 -0.0027053642     1     5     4    15
 -0.9986202300     1     5     5     1
 0.0408589773     1     5     5     2
 -0.0137045042     1     5     5     4
 0.0065161015     1     5     5     6
 -0.0072964651     1     5     5     8
 -0.0077532147     1     5     5    11
 -0.0035506316     1     5     5    13
 -0.0098064917     1     5     5    16
 -0.0021103400     1     5     6    10
 0.0001366874     1     5     6    15
 -0.0005144352     1     5     7    14
 -0.0001890888     1     5     8    10
 0.0002229445     1     5     8    15
 -0.0000686106     1     5     9    14
 0.2262880851     1     5    10     1
 -0.0131473586     1     5    10     2
 0.0045339714     1     5    10     4
 -0.0049041472     1     5    10     6
 0.0028470556     1     5    10     8
 0.0026129124     1     5    10    11
 0.0015603298     1     5    10    13
 0.0077959323     1     5    10    16
 -0.0008498354     1     5    11    10
 -0.0006933436     1     5    11    15
 -0.0003100386     1     5    12    14
 -0.0000001867     1     5    13    10
 0.0001513157     1     5    13    15
 0.0001582223     1     5    14     3
 -0.0012956326     1     5    14     7
 0.0003606685     1     5    14     9
 -0.0020956772     1     5    14    12
 -0.0561538628     1     5    15     1
 0.0035769538     1     5    15     2
 -0.0013146623     1     5    15     4
 0.0014934130     1     5    15     6
 -0.0000103126     1     5    15     8
 -0.0030194873     1     5    15    11
 -0.0008250526     1     5    15    13
 -0.0008789468     1     5    15    16
 0.0038120675     1     5    16    10
 0.0000208576     1     5    16    15
 -0.1073611343     1     6     2     1
 0.0010391447     1     6     2     2
 -0.0002568042     1     6     2     4
 -0.0003947162     1     6     2     8
 0.0004656299     1     6     2    11
 0.0002874556     1     6     2    13
 -0.0003826144     1     6     2    16
 -0.0035973660     1     6     3     3
 -0.0011852607     1     6     3     7
 0.0012156803     1     6     3     9
 -0.0030238807     1     6     3    12
 -0.0604328522     1     6     4     1
 0.0054666744     1     6     4     2
 -0.0069674353     1     6     4     4
 -0.0018791400     1     6     4     8
 0.0013763619     1     6     4    11
 0.0010146588     1     6     4    13
 -0.0024055274     1     6     4    16
 -0.0065161015     1     6     5     5
 0.0027606987     1     6     5    10
 -0.0013456078     1     6     5    15
 -0.2794154191     1     6     6     1
 0.0010030445     1     6     6     2
 -0.0026459815     1     6     6     4
 -0.0004733181     1     6     6     8
 0.0006383806     1     6     6    11
 0.0002589304     1     6     6    13
 -0.0005757092     1     6     6    16
 -0.0027120820     1     6     7     3
 -0.0006632250     1     6     7     7
 0.0003755766     1     6     7     9
 -0.0018236894     1     6     7    12
 0.0146706813     1     6     8     1
 0.0007916592     1     6     8     2
 -0.0025841799     1     6     8     4
 -0.0009800697     1     6     8     8
 0.0010572050     1     6     8    11
 0.0001344446     1     6     8    13
 -0.0008366943     1     6     8    16
 0.0008839710     1     6     9     3
 0.0000530181     1     6     9     7
 -0.0002046671     1     6     9     9
 0.0001122200     1     6     9    12
 0.0049041472     1     6    10     5
 -0.0022797191     1     6    10    10
 0.0004933719     1     6    10    15
 0.1063387963     1     6    11     1
 -0.0022994861     1     6    11     2
 0.0045419564     1     6    11     4
 0.0014826931     1     6    11     8
 -0.0009695947     1     6    11    11
 -0.0003733807     1     6    11    13
 0.0014499284     1     6    11    16
 -0.0043243900     1     6    12     3
 -0.0012377500     1     6    12     7
 0.0005312891     1     6    12     9
 -0.0027796532     1     6    12    12
 0.0476738902     1     6    13     1
 -0.0008369759     1     6    13     2
 0.0022422217     1     6    13     4
 0.0003013666     1     6    13     8
 -0.0003605865     1     6    13    11
 0.0001581473     1     6    13    13
 0.0004468415     1     6    13    16
 0.0003689954     1     6    14    14
 -0.0014934130     1     6    15     5
 0.0002924071     1     6    15    10
 0.0001241951     1     6    15    15
 0.0732636003     1     6    16     1
 0.0000869463     1     6    16     2
 -0.0007587646     1     6    16     4
 -0.0003835647     1     6    16     8
 0.0003292338     1     6    16    11
 0.0000033648     1     6    16    13
 -0.0003080994     1     6    16    16
 0.0015665802     1     7     2     3
 0.0001497716     1     7     2     9
 -0.0003856029     1     7     2    12
 -0.1190413225     1     7     3     1
 0.0085154492     1     7     3     2
 -0.0016248658     1     7     3     4
 0.0011852607     1     7     3     6
 -0.0006938853     1     7     3     8
 -0.0005610329     1     7     3    11
 -0.0011485652     1     7     3    13
 -0.0023397316     1     7     3    16
 0.0007203165     1     7     4     3
 0.0007286881     1     7     4     9
 -0.0001677486     1     7     4    12
 0.0007782142     1     7     5    14
 -0.0015111601     1     7     6     3
 0.0003222385     1     7     6     9
 -0.0005838496     1     7     6    12
 -0.2408322900     1     7     7     1
 0.0021554387     1     7     7     2
 -0.0014742686     1     7     7     4
 0.0006632250     1     7     7     6
 -0.0006018190     1     7     7     8
 -0.0001875075     1     7     7    11
 -0.0000073837     1     7     7    13
 -0.0008132709     1     7     7    16
 0.0007665800     1     7     8     3
 -0.0003402242     1     7     8     9
 -0.0001111939     1     7     8    12
 0.0303519038     1     7     9     1
 -0.0010758429     1     7     9     2
 0.0015214304     1     7     9     4
 -0.0000530181     1     7     9     6
 -0.0000085219     1     7     9     8
 0.0002265012     1     7     9    11
 0.0001981824     1     7     9    13
 0.0003558129     1     7     9    16
 0.0002228933     1     7    10    14
 0.0010779617     1     7    11     3
 0.0001090155     1     7    11     9
 -0.0000953116     1     7    11    12
 -0.1281020447     1     7    12     1
 0.0048589543     1     7    12     2
 -0.0019322118     1     7    12     4
 0.0012377500     1     7    12     6
 -0.0011454656     1     7    12     8
 -0.0012516043     1     7    12    11
 -0.0005609929     1     7    12    13
 -0.0020779941     1     7    12    16
 -0.0007442631     1     7    13     3
 0.0001824324     1     7    13     9
 -0.0002370763     1     7    13    12
 0.0012956326     1     7    14     5
 0.0000035965     1     7    14    10
 -0.0004505326     1     7    14    15
 -0.0005115507     1     7    15    14
 0.0000311527     1     7    16     3
 -0.0001007219     1     7    16     9
 -0.0003301671     1     7    16    12
 0.0540989064     1     8     2     1
 0.0020514051     1     8     2     2
 0.0015491651     1     8     2     4
 0.0003947162     1     8     2     6
 -0.0005159181     1     8     2    11
 -0.0001068736     1     8     2    13
 -0.0004479872     1     8     2    16
 0.0036498034     1     8     3     3
 0.0006938853     1     8     3     7
 0.0001991167     1     8     3     9
 0.0014489690     1     8     3    12
 -0.1248239009     1     8     4     1
 0.0078246204     1     8     4     2
 0.0024215176     1     8     4     4
 0.0018791400     1     8     4     6
 -0.0030744826     1     8     4    11
 -0.0006713714     1     8     4    13
 -0.0018247691     1     8     4    16
 0.0072964651     1     8     5     5
 -0.0030574234     1     8     5    10
 0.0002403789     1     8     5    15
 0.0146706813     1     8     6     1
 0.0011867112     1     8     6     2
 -0.0006986780     1     8     6     4
 0.0004733181     1     8     6     6
 -0.0004266200     1     8     6    11
 -0.0001676610     1     8     6    13
 -0.0004520234     1     8     6    16
 0.0014586600     1     8     7     3
 0.0006018190     1     8     7     7
 -0.0003315740     1     8     7     9
 0.0010349756     1     8     7    12
 -0.3084767953     1     8     8     1
 0.0020850614     1     8     8     2
 0.0018578099     1     8     8     4
 0.0009800697     1     8     8     6
 -0.0011744944     1     8     8    11
 -0.0007887607     1     8     8    13
 -0.0004742282     1     8     8    16
 0.0009880237     1     8     9     3
 0.0000085219     1     8     9     7
 -0.0002271907     1     8     9     9
 -0.0000007462     1     8     9    12
 -0.0028470556     1     8    10     5
 0.0013242741     1     8    10    10
 -0.0005752100     1     8    10    15
 0.0208811142     1     8    11     1
 -0.0035512145     1     8    11     2
 -0.0021057409     1     8    11     4
 -0.0014826931     1     8    11     6
 0.0024842364     1     8    11    11
 0.0010121943     1     8    11    13
 0.0009914317     1     8    11    16
 0.0035574031     1     8    12     3
 0.0011454656     1     8    12     7
 -0.0008363303     1     8    12     9
 0.0027229391     1     8    12    12
 0.0203615156     1     8    13     1
 -0.0010474142     1     8    13     2
 0.0011658854     1     8    13     4
 -0.0003013666     1     8    13     6
 0.0003366743     1     8    13    11
 0.0004578749     1     8    13    13
 0.0003778898     1     8    13    16
 0.0004032974     1     8    14    14
 0.0000103126     1     8    15     5
 -0.0004939544     1     8    15    10
 0.0003610460     1     8    15    15
 -0.0599349271     1     8    16     1
 0.0010279906     1     8    16     2
 0.0008661521     1     8    16     4
 0.0003835647     1     8    16     6
 -0.0005339898     1     8    16    11
 -0.0003560955     1     8    16    13
 -0.0001633013     1     8    16    16
 -0.0013942059     1     9     2     3
 -0.0001497716     1     9     2     7
 -0.0001284407     1     9     2    12
 0.0465528857     1     9     3     1
 -0.0052478213     1     9     3     2
 -0.0017384322     1     9     3     4
 -0.0012156803     1     9     3     6
 -0.0001991167     1     9     3     8
 0.0016375386     1     9     3    11
 0.0011502365     1     9     3    13
 0.0011106085     1     9     3    16
 -0.0028883259     1     9     4     3
 -0.0007286881     1     9     4     7
 -0.0015779160     1     9     4    12
 -0.0004167626     1     9     5    14
 -0.0003274226     1     9     6     3
 -0.0003222385     1     9     6     7
 -0.0004193088     1     9     6    12
 0.0303519038     1     9     7     1
 -0.0012288627     1     9     7     2
 0.0007953899     1     9     7     4
 -0.0003755766     1     9     7     6
 0.0003315740     1     9     7     8
 0.0001186620     1     9     7    11
 0.0000168430     1     9     7    13
 0.0004568614     1     9     7    16
 0.0007797405     1     9     8     3
 0.0003402242     1     9     8     7
 0.0008338953     1     9     8    12
 -0.3135934043     1     9     9     1
 0.0008508506     1     9     9     2
 0.0001219251     1     9     9     4
 0.0002046671     1     9     9     6
 0.0002271907     1     9     9     8
 -0.0005747596     1     9     9    11
 -0.0002769251     1     9     9    13
 -0.0000938792     1     9     9    16
 -0.0001124647     1     9    10    14
 -0.0009743422     1     9    11     3
 -0.0001090155     1     9    11     7
 -0.0001885284     1     9    11    12
 0.0676032786     1     9    12     1
 -0.0026269576     1     9    12     2
 0.0019664990     1     9    12     4
 -0.0005312891     1     9    12     6
 0.0008363303     1     9    12     8
 0.0002990832     1     9    12    11
 0.0001613019     1     9    12    13
 0.0012484266     1     9    12    16
 -0.0002414823     1     9    13     3
 -0.0001824324     1     9    13     7
 -0.0002758517     1     9    13    12
 -0.0003606685     1     9    14     5
 -0.0001534681     1     9    14    10
 0.0002876286     1     9    14    15
 0.0002779076     1     9    15    14
 0.0003331419     1     9    16     3
 0.0001007219     1     9    16     7
 0.0004166891     1     9    16    12
 -0.0027079501     1    10     2     5
 0.0003117681     1    10     2    15
 -0.0013290488     1    10     3    14
 0.0006417971     1    10     4     5
 0.0012963957     1    10     4    15
 0.2262880851     1    10     5     1
 -0.0170103133     1    10     5     2
 0.0054917321     1    10     5     4
 -0.0027606987     1    10     5     6
 0.0030574234     1    10     5     8
 0.0034030573     1    10     5    11
 0.0015421265     1    10     5    13
 0.0039973891     1    10     5    16
 0.0021103400     1    10     6     5
 0.0002000642     1    10     6    15
 0.0002189769     1    10     7    14
 0.0001890888     1    10     8     5
 -0.0000805590     1    10     8    15
 0.0000407203     1    10     9    14
 -0.3949414667     1    10    10     1
 0.0073230167     1    10    10     2
 -0.0022828751     1    10    10     4
 0.0022797191     1    10    10     6
 -0.0013242741     1    10    10     8
 -0.0013275030     1    10    10    11
 -0.0007665111     1    10    10    13
 -0.0036284339     1    10    10    16
 0.0008498354     1    10    11     5
 0.0003968232     1    10    11    15
 0.0001310536     1    10    12    14
 0.0000001867     1    10    13     5
 -0.0000702233     1    10    13    15
 -0.0021102635     1    10    14     3
 -0.0000035965     1    10    14     7
 0.0001534681     1    10    14     9
 -0.0003621899     1    10    14    12
 0.0394749130     1    10    15     1
 -0.0016363610     1    10    15     2
 0.0027931475     1    10    15     4
 -0.0002924071     1    10    15     6
 0.0004939544     1    10    15     8
 0.0003999397     1    10    15    11
 0.0000029271     1    10    15    13
 0.0006375706     1    10    15    16
 -0.0038120675     1    10    16     5
 -0.0004727556     1    10    16    15
 0.1111439870     1    11     2     1
 -0.0033833305     1    11     2     2
 -0.0013632809     1    11     2     4
 -0.0004656299     1    11     2     6
 0.0005159181     1    11     2     8
 -0.0002312798     1    11     2    13
 0.0009618935     1    11     2    16
 0.0002359530     1    11     3     3
 0.0005610329     1    11     3     7
 -0.0016375386     1    11     3     9
 0.0018945473     1    11     3    12
 0.1626099133     1    11     4     1
 -0.0144759145     1    11     4     2
 0.0095402419     1    11     4     4
 -0.0013763619     1    11     4     6
 0.0030744826     1    11     4     8
 -0.0011257407     1    11     4    13
 0.0052718728     1    11     4    16
 0.0077532147     1    11     5     5
 -0.0034030573     1    11     5    10
 0.0022957642     1    11     5    15
 0.1063387963     1    11     6     1
 -0.0027486805     1    11     6     2
 0.0031756173     1    11     6     4
 -0.0006383806     1    11     6     6
 0.0004266200     1    11     6     8
 -0.0000123775     1    11     6    13
 0.0011233218     1    11     6    16
 0.0016657650     1    11     7     3
 0.0001875075     1    11     7     7
 -0.0001186620     1    11     7     9
 0.0011578683     1    11     7    12
 0.0208811142     1    11     8     1
 -0.0030565815     1    11     8     2
 0.0009599739     1    11     8     4
 -0.0010572050     1    11     8     6
 0.0011744944     1    11     8     8
 0.0006737050     1    11     8    13
 0.0015275498     1    11     8    16
 -0.0025982461     1    11     9     3
 -0.0002265012     1    11     9     7
 0.0005747596     1    11     9     9
 -0.0004871516     1    11     9    12
 -0.0026129124     1    11    10     5
 0.0013275030     1    11    10    10
 -0.0000058082     1    11    10    15
 -0.4224228955     1    11    11     1
 0.0062251670     1    11    11     2
 -0.0062811269     1    11    11     4
 0.0009695947     1    11    11     6
 -0.0024842364     1    11    11     8
 -0.0000384587     1    11    11    13
 -0.0030866635     1    11    11    16
 0.0047013756     1    11    12     3
 0.0012516043     1    11    12     7
 -0.0002990832     1    11    12     9
 0.0026982094     1    11    12    12
 -0.0396027992     1    11    13     1
 0.0022077020     1    11    13     2
 -0.0037006246     1    11    13     4
 0.0003605865     1    11    13     6
 -0.0003366743     1    11    13     8
 -0.0007002713     1    11    13    13
 -0.0009406294     1    11    13    16
 -0.0008662215     1    11    14    14
 0.0030194873     1    11    15     5
 -0.0003999397     1    11    15    10
 -0.0003689683     1    11    15    15
 -0.0096164470     1    11    16     1
 -0.0009621304     1    11    16     2
 0.0002420969     1    11    16     4
 -0.0003292338     1    11    16     6
 0.0005339898     1    11    16     8
 0.0003048159     1    11    16    13
 0.0005674970     1    11    16    16
 0.0049430198     1    12     2     3
 0.0003856029     1    12     2     7
 0.0001284407     1    12     2     9
 -0.2265030177     1    12     3     1
 0.0199705372     1    12     3     2
 -0.0028023079     1    12     3     4
 0.0030238807     1    12     3     6
 -0.0014489690     1    12     3     8
 -0.0018945473     1    12     3    11
 -0.0028738808     1    12     3    13
 -0.0054802137     1    12     3    16
 0.0021896518     1    12     4     3
 0.0001677486     1    12     4     7
 0.0015779160     1    12     4     9
 0.0017675524     1    12     5    14
 -0.0012959356     1    12     6     3
 0.0005838496     1    12     6     7
 0.0004193088     1    12     6     9
 -0.1281020447     1    12     7     1
 0.0052587236     1    12     7     2
 -0.0017684441     1    12     7     4
 0.0018236894     1    12     7     6
 -0.0010349756     1    12     7     8
 -0.0011578683     1    12     7    11
 -0.0003264735     1    12     7    13
 -0.0017517670     1    12     7    16
 0.0021515611     1    12     8     3
 0.0001111939     1    12     8     7
 -0.0008338953     1    12     8     9
 0.0676032786     1    12     9     1
 -0.0025033933     1    12     9     2
 0.0035425978     1    12     9     4
 -0.0001122200     1    12     9     6
 0.0000007462     1    12     9     8
 0.0004871516     1    12     9    11
 0.0004362999     1    12     9    13
 0.0008301856     1    12     9    16
 0.0004908766     1    12    10    14
 0.0027839207     1    12    11     3
 0.0000953116     1    12    11     7
 0.0001885284     1    12    11     9
 -0.4505000579     1    12    12     1
 0.0111591198     1    12    12     2
 -0.0048457453     1    12    12     4
 0.0027796532     1    12    12     6
 -0.0027229391     1    12    12     8
 -0.0026982094     1    12    12    11
 -0.0012296430     1    12    12    13
 -0.0048357511     1    12    12    16
 -0.0008280973     1    12    13     3
 0.0002370763     1    12    13     7
 0.0002758517     1    12    13     9
 0.0020956772     1    12    14     5
 0.0003621899     1    12    14    10
 -0.0011158399     1    12    14    15
 -0.0011514083     1    12    15    14
 0.0012820907     1    12    16     3