&FCI NORB= 11,NELEC= 10,MS2=0,
 ORBSYM=1,1,1,1,1,1,1,1,1,1,1
 ISYM=1,
&END
 0.9960077139     1     1     2     2
 -0.0402898921     1     1     2     3
 0.0677591875     1     1     2     4
 -0.1021641457     1     1     2     6
 0.0752028452     1     1     2     7
 0.0301706551     1     1     2     8
 0.0638138513     1     1     2     9
 0.0294911512     1     1     2    10
 -0.0402898921     1     1     3     2
 0.8770512875     1     1     3     3
 -0.0770129850     1     1     3     4
 0.0783940040     1     1     3     6
 0.1286935735     1     1     3     7
 -0.0393726143     1     1     3     8
 -0.0000969687     1     1     3     9
 0.1886778287     1     1     3    10
 0.0677591875     1     1     4     2
 -0.0770129850     1     1     4     3
 0.8167388686     1     1     4     4
 0.2090652364     1     1     4     6
 0.0521038552     1     1     4     7
 -0.0883708091     1     1     4     8
 0.0446539330     1     1     4     9
 -0.1471536728     1     1     4    10
 1.0053563463     1     1     5     5
 -0.2159688250     1     1     5    11
 -0.1021641457     1     1     6     2
 0.0783940040     1     1     6     3
 0.2090652364     1     1     6     4
 0.4525527554     1     1     6     6
 0.0344729441     1     1     6     7
 -0.1420255912     1     1     6     8
 -0.0044933104     1     1     6     9
 -0.0533806808     1     1     6    10
 0.0752028452     1     1     7     2
 0.1286935735     1     1     7     3
 0.0521038552     1     1     7     4
 0.0344729441     1     1     7     6
 0.3130210384     1     1     7     7
 -0.0503530686     1     1     7     8
 0.0482769974     1     1     7     9
 0.0894955474     1     1     7    10
 0.0301706551     1     1     8     2
 -0.0393726143     1     1     8     3
 -0.0883708091     1     1     8     4
 -0.1420255912     1     1     8     6
 -0.0503530686     1     1     8     7
 0.3142192012     1     1     8     8
 -0.0120370706     1     1     8     9
 0.0149371612     1     1     8    10
 0.0638138513     1     1     9     2
 -0.0000969687     1     1     9     3
 0.0446539330     1     1     9     4
 -0.0044933104     1     1     9     6
 0.0482769974     1     1     9     7
 -0.0120370706     1     1     9     8
 0.3608127603     1     1     9     9
 0.0190369635     1     1     9    10
 0.0294911512     1     1    10     2
 0.1886778287     1     1    10     3
 -0.1471536728     1     1    10     4
 -0.0533806808     1     1    10     6
 0.0894955474     1     1    10     7
 0.0149371612     1     1    10     8
 0.0190369635     1     1    10     9
 0.4925113793     1     1    10    10
 -0.2159688250     1     1    11     5
 0.4322522637     1     1    11    11
 -0.9960077139     1     2     2     1
 -0.0056006056     1     2     2     3
 0.0020493987     1     2     2     4
 -0.0002959875     1     2     2     6
 -0.0017790275     1     2     2     7
 0.0002963872     1     2     2     8
 -0.0001372178     1     2     2     9
 -0.0043818754     1     2     2    10
 0.0402898921     1     2     3     1
 -0.0324814629     1     2     3     3
 0.0044942953     1     2     3     4
 -0.0042631765     1     2     3     6
 -0.0101976768     1     2     3     7
 0.0033439273     1     2     3     8
 -0.0023977616     1     2     3     9
 -0.0174246686     1     2     3    10
 -0.0677591875     1     2     4     1
 0.0039441760     1     2     4     3
 -0.0294765158     1     2     4     4
 -0.0147343655     1     2     4     6
 -0.0026596636     1     2     4     7
 0.0078474928     1     2     4     8
 -0.0025645309     1     2     4     9
 0.0120561475     1     2     4    10
 -0.0426422718     1     2     5     5
 0.0182695871     1     2     5    11
 0.1021641457     1     2     6     1
 -0.0028155456     1     2     6     3
 -0.0123781112     1     2     6     4
 -0.0096775766     1     2     6     6
 -0.0034221983     1     2     6     7
 0.0052809344     1     2     6     8
 -0.0016899630     1     2     6     9
 0.0037501237     1     2     6    10
 -0.0752028452     1     2     7     1
 -0.0082139322     1     2     7     3
 -0.0018854655     1     2     7     4
 -0.0035539536     1     2     7     6
 -0.0037204096     1     2     7     7
 0.0022274075     1     2     7     8
 -0.0011602029     1     2     7     9
 -0.0042009711     1     2     7    10
 -0.0301706551     1     2     8     1
 0.0022619249     1     2     8     3
 0.0062864590     1     2     8     4
 0.0050588284     1     2     8     6
 0.0020611162     1     2     8     7
 -0.0029278160     1     2     8     8
 0.0010877814     1     2     8     9
 -0.0014945475     1     2     8    10
 -0.0638138513     1     2     9     1
 -0.0017932354     1     2     9     3
 -0.0017365104     1     2     9     4
 -0.0014491613     1     2     9     6
 -0.0010719374     1     2     9     7
 0.0010003989     1     2     9     8
 -0.0005785442     1     2     9     9
 0.0000798637     1     2     9    10
 -0.0294911512     1     2    10     1
 -0.0125500060     1     2    10     3
 0.0092407324     1     2    10     4
 0.0028654668     1     2    10     6
 -0.0035605854     1     2    10     7
 -0.0011761942     1     2    10     8
 0.0002587751     1     2    10     9
 -0.0120383888     1     2    10    10
 0.0135076290     1     2    11     5
 -0.0078353478     1     2    11    11
 0.0402898921     1     3     2     1
 0.0056006056     1     3     2     2
 0.0005522711     1     3     2     4
 -0.0011840887     1     3     2     6
 -0.0012163067     1     3     2     7
 0.0008716953     1     3     2     8
 -0.0004314371     1     3     2     9
 -0.0037047627     1     3     2    10
 -0.8770512875     1     3     3     1
 0.0324814629     1     3     3     2
 0.0045826280     1     3     3     4
 -0.0037215048     1     3     3     6
 0.0037814209     1     3     3     7
 0.0010707729     1     3     3     8
 0.0004213250     1     3     3     9
 0.0001801426     1     3     3    10
 0.0770129850     1     3     4     1
 -0.0039441760     1     3     4     2
 0.0060410438     1     3     4     4
 0.0053678337     1     3     4     6
 0.0009544715     1     3     4     7
 -0.0037882314     1     3     4     8
 0.0001092198     1     3     4     9
 -0.0019885178     1     3     4    10
 0.0099448545     1     3     5     5
 -0.0048298323     1     3     5    11
 -0.0783940040     1     3     6     1
 0.0028155456     1     3     6     2
 0.0035319934     1     3     6     4
 0.0008539045     1     3     6     6
 0.0000115123     1     3     6     7
 -0.0010186341     1     3     6     8
 0.0007563005     1     3     6     9
 -0.0016747616     1     3     6    10
 -0.1286935735     1     3     7     1
 0.0082139322     1     3     7     2
 0.0020371752     1     3     7     4
 -0.0018450291     1     3     7     6
 0.0035544003     1     3     7     7
 0.0002636203     1     3     7     8
 0.0011845148     1     3     7     9
 0.0018865174     1     3     7    10
 0.0393726143     1     3     8     1
 -0.0022619249     1     3     8     2
 -0.0019488238     1     3     8     4
 -0.0001107440     1     3     8     6
 -0.0004097553     1     3     8     7
 -0.0006901000     1     3     8     8
 0.0001996588     1     3     8     9
 -0.0002239872     1     3     8    10
 0.0000969687     1     3     9     1
 0.0017932354     1     3     9     2
 0.0004096546     1     3     9     4
 0.0005601994     1     3     9     6
 0.0014982239     1     3     9     7
 0.0001404950     1     3     9     8
 0.0005267676     1     3     9     9
 0.0037430409     1     3     9    10
 -0.1886778287     1     3    10     1
 0.0125500060     1     3    10     2
 0.0002628456     1     3    10     4
 -0.0045120443     1     3    10     6
 0.0035855422     1     3    10     7
 0.0012504817     1     3    10     8
 0.0037453318     1     3    10     9
 0.0037154441     1     3    10    10
 -0.0030046262     1     3    11     5
 0.0004121255     1     3    11    11
 -0.0677591875     1     4     2     1
 -0.0020493987     1     4     2     2
 -0.0005522711     1     4     2     3
 -0.0012135664     1     4     2     6
 -0.0006124755     1     4     2     7
 0.0010017580     1     4     2     8
 -0.0006516440     1     4     2     9
 0.0019157608     1     4     2    10
 0.0770129850     1     4     3     1
 -0.0044942953     1     4     3     2
 -0.0045826280     1     4     3     3
 0.0016339760     1     4     3     6
 -0.0012157845     1     4     3     7
 -0.0017187740     1     4     3     8
 -0.0002744771     1     4     3     9
 -0.0022880879     1     4     3    10
 -0.8167388686     1     4     4     1
 0.0294765158     1     4     4     2
 -0.0060410438     1     4     4     3
 -0.0054341583     1     4     4     6
 0.0029475146     1     4     4     7
 0.0011463088     1     4     4     8
 0.0048218160     1     4     4     9
 0.0021792013     1     4     4    10
 -0.0075114188     1     4     5     5
 0.0022113474     1     4     5    11
 -0.2090652364     1     4     6     1
 0.0123781112     1     4     6     2
 -0.0035319934     1     4     6     3
 -0.0063397841     1     4     6     6
 0.0003246338     1     4     6     7
 0.0024168195     1     4     6     8
 0.0019461600     1     4     6     9
 0.0016058988     1     4     6    10
 -0.0521038552     1     4     7     1
 0.0018854655     1     4     7     2
 -0.0020371752     1     4     7     3
 -0.0012539901     1     4     7     6
 -0.0007922863     1     4     7     7
 0.0006016266     1     4     7     8
 0.0004025514     1     4     7     9
 -0.0015105719     1     4     7    10
 0.0883708091     1     4     8     1
 -0.0062864590     1     4     8     2
 0.0019488238     1     4     8     3
 0.0035509384     1     4     8     6
 0.0003106316     1     4     8     7
 -0.0032359548     1     4     8     8
 -0.0013836859     1     4     8     9
 0.0000497559     1     4     8    10
 -0.0446539330     1     4     9     1
 0.0017365104     1     4     9     2
 -0.0004096546     1     4     9     3
 -0.0009593062     1     4     9     6
 0.0001898852     1     4     9     7
 -0.0000679686     1     4     9     8
 -0.0008562663     1     4     9     9
 0.0002344625     1     4     9    10
 0.1471536728     1     4    10     1
 -0.0092407324     1     4    10     2
 -0.0002628456     1     4    10     3
 0.0033489347     1     4    10     6
 -0.0028258427     1     4    10     7
 -0.0006952025     1     4    10     8
 -0.0019583844     1     4    10     9
 -0.0016036043     1     4    10    10
 0.0030338403     1     4    11     5
 -0.0036785878     1     4    11    11
 0.0035364925     1     5     2    11
 -0.0016809929     1     5     3    11
 -0.0010727556     1     5     4    11
 -1.0053563463     1     5     5     1
 0.0426422718     1     5     5     2
 -0.0099448545     1     5     5     3
 0.0075114188     1     5     5     4
 -0.0078729634     1     5     5     6
 0.0038114739     1     5     5     7
 0.0035839917     1     5     5     8
 0.0070728776     1     5     5     9
 -0.0004916271     1     5     5    10
 0.0006937643     1     5     6    11
 -0.0009776114     1     5     7    11
 0.0008906653     1     5     8    11
 0.0005284662     1     5     9    11
 0.0002953211     1     5    10    11
 0.2159688250     1     5    11     1
 -0.0135076290     1     5    11     2
 0.0030046262     1     5    11     3
 -0.0030338403     1     5    11     4
 0.0049068997     1     5    11     6
 -0.0022594167     1     5    11     7
 -0.0011371963     1     5    11     8
 -0.0024445073     1     5    11     9
 0.0003780274     1     5    11    10
 0.1021641457     1     6     2     1
 0.0002959875     1     6     2     2
 0.0011840887     1     6     2     3
 0.0012135664     1     6     2     4
 0.0001442188     1     6     2     7
 0.0002044345     1     6     2     8
 -0.0002210259     1     6     2     9
 0.0008789651     1     6     2    10
 -0.0783940040     1     6     3     1
 0.0042631765     1     6     3     2
 0.0037215048     1     6     3     3
 -0.0016339760     1     6     3     4
 0.0018684294     1     6     3     7
 -0.0009249687     1     6     3     8
 0.0002115359     1     6     3     9
 0.0027974783     1     6     3    10
 -0.2090652364     1     6     4     1
 0.0147343655     1     6     4     2
 -0.0053678337     1     6     4     3
 0.0054341583     1     6     4     4
 0.0016226662     1     6     4     7
 -0.0011864876     1     6     4     8
 0.0029624131     1     6     4     9
 -0.0017667871     1     6     4    10
 0.0078729634     1     6     5     5
 -0.0042169948     1     6     5    11
 -0.4525527554     1     6     6     1
 0.0096775766     1     6     6     2
 -0.0008539045     1     6     6     3
 0.0063397841     1     6     6     4
 0.0016919564     1     6     6     7
 -0.0007560848     1     6     6     8
 0.0020914503     1     6     6     9
 -0.0007191753     1     6     6    10
 -0.0344729441     1     6     7     1
 0.0035539536     1     6     7     2
 0.0018450291     1     6     7     3
 0.0012539901     1     6     7     4
 0.0016171210     1     6     7     7
 -0.0003095795     1     6     7     8
 0.0008984403     1     6     7     9
 0.0009654595     1     6     7    10
 0.1420255912     1     6     8     1
 -0.0050588284     1     6     8     2
 0.0001107440     1     6     8     3
 -0.0035509384     1     6     8     4
 -0.0008543304     1     6     8     7
 -0.0008271259     1     6     8     8
 -0.0012423447     1     6     8     9
 0.0005447919     1     6     8    10
 0.0044933104     1     6     9     1
 0.0014491613     1     6     9     2
 -0.0005601994     1     6     9     3
 0.0009593062     1     6     9     4
 0.0004560025     1     6     9     7
 -0.0002509883     1     6     9     8
 -0.0002972813     1     6     9     9
 0.0003776651     1     6     9    10
 0.0533806808     1     6    10     1
 -0.0028654668     1     6    10     2
 0.0045120443     1     6    10     3
 -0.0033489347     1     6    10     4
 0.0003435266     1     6    10     7
 0.0002444919     1     6    10     8
 -0.0003575035     1     6    10     9
 0.0037472002     1     6    10    10
 -0.0049068997     1     6    11     5
 0.0009672204     1     6    11    11
 -0.0752028452     1     7     2     1
 0.0017790275     1     7     2     2
 0.0012163067     1     7     2     3
 0.0006124755     1     7     2     4
 -0.0001442188     1     7     2     6
 0.0001559042     1     7     2     8
 -0.0000772203     1     7     2     9
 -0.0006359360     1     7     2    10
 -0.1286935735     1     7     3     1
 0.0101976768     1     7     3     2
 -0.0037814209     1     7     3     3
 0.0012157845     1     7     3     4
 -0.0018684294     1     7     3     6
 0.0006781235     1     7     3     8
 -0.0003008262     1     7     3     9
 -0.0017463700     1     7     3    10
 -0.0521038552     1     7     4     1
 0.0026596636     1     7     4     2
 -0.0009544715     1     7     4     3
 -0.0029475146     1     7     4     4
 -0.0016226662     1     7     4     6
 0.0003124037     1     7     4     8
 0.0002474132     1     7     4     9
 0.0012973889     1     7     4    10
 -0.0038114739     1     7     5     5
 0.0012777222     1     7     5    11
 -0.0344729441     1     7     6     1
 0.0034221983     1     7     6     2
 -0.0000115123     1     7     6     3
 -0.0003246338     1     7     6     4
 -0.0016919564     1     7     6     6
 0.0005459501     1     7     6     8
 0.0004439517     1     7     6     9
 0.0006226227     1     7     6    10
 -0.3130210384     1     7     7     1
 0.0037204096     1     7     7     2
 -0.0035544003     1     7     7     3
 0.0007922863     1     7     7     4
 -0.0016171210     1     7     7     6
 0.0006980455     1     7     7     8
 0.0002335874     1     7     7     9
 -0.0012003184     1     7     7    10
 0.0503530686     1     7     8     1
 -0.0020611162     1     7     8     2
 0.0004097553     1     7     8     3
 -0.0003106316     1     7     8     4
 0.0008543304     1     7     8     6
 -0.0009085086     1     7     8     8
 -0.0000724207     1     7     8     9
 -0.0002308028     1     7     8    10
 -0.0482769974     1     7     9     1
 0.0010719374     1     7     9     2
 -0.0014982239     1     7     9     3
 -0.0001898852     1     7     9     4
 -0.0004560025     1     7     9     6
 0.0003727244     1     7     9     8
 -0.0000798666     1     7     9     9
 0.0008026763     1     7     9    10
 -0.0894955474     1     7    10     1
 0.0035605854     1     7    10     2
 -0.0035855422     1     7    10     3
 0.0028258427     1     7    10     4
 -0.0003435266     1     7    10     6
 0.0000223419     1     7    10     8
 0.0010967508     1     7    10     9
 -0.0018726064     1     7    10    10
 0.0022594167     1     7    11     5
 -0.0018419525     1     7    11    11
 -0.0301706551     1     8     2     1
 -0.0002963872     1     8     2     2
 -0.0008716953     1     8     2     3
 -0.0010017580     1     8     2     4
 -0.0002044345     1     8     2     6
 -0.0001559042     1     8     2     7
 0.0000859265     1     8     2     9
 -0.0003188720     1     8     2    10
 0.0393726143     1     8     3     1
 -0.0033439273     1     8     3     2
 -0.0010707729     1     8     3     3
 0.0017187740     1     8     3     4
 0.0009249687     1     8     3     6
 -0.0006781235     1     8     3     7
 0.0000357843     1     8     3     9
 -0.0014376598     1     8     3    10
 0.0883708091     1     8     4     1
 -0.0078474928     1     8     4     2
 0.0037882314     1     8     4     3
 -0.0011463088     1     8     4     4
 0.0011864876     1     8     4     6
 -0.0003124037     1     8     4     7
 -0.0013583414     1     8     4     9
 0.0007653715     1     8     4    10
 -0.0035839917     1     8     5     5
 0.0020041092     1     8     5    11
 0.1420255912     1     8     6     1
 -0.0052809344     1     8     6     2
 0.0010186341     1     8     6     3
 -0.0024168195     1     8     6     4
 0.0007560848     1     8     6     6
 -0.0005459501     1     8     6     7
 -0.0009911494     1     8     6     9
 0.0003009165     1     8     6    10
 0.0503530686     1     8     7     1
 -0.0022274075     1     8     7     2
 -0.0002636203     1     8     7     3
 -0.0006016266     1     8     7     4
 0.0003095795     1     8     7     6
 -0.0006980455     1     8     7     7
 -0.0004436662     1     8     7     9
 -0.0002533055     1     8     7    10
 -0.3142192012     1     8     8     1
 0.0029278160     1     8     8     2
 0.0006901000     1     8     8     3
 0.0032359548     1     8     8     4
 0.0008271259     1     8     8     6
 0.0009085086     1     8     8     7
 0.0008428583     1     8     8     9
 -0.0003432286     1     8     8    10
 0.0120370706     1     8     9     1
 -0.0010003989     1     8     9     2
 -0.0001404950     1     8     9     3
 0.0000679686     1     8     9     4
 0.0002509883     1     8     9     6
 -0.0003727244     1     8     9     7
 0.0001486417     1     8     9     9
 -0.0007849704     1     8     9    10
 -0.0149371612     1     8    10     1
 0.0011761942     1     8    10     2
 -0.0012504817     1     8    10     3
 0.0006952025     1     8    10     4
 -0.0002444919     1     8    10     6
 -0.0000223419     1     8    10     7
 0.0000591509     1     8    10     9
 -0.0010766685     1     8    10    10
 0.0011371963     1     8    11     5
 0.0002107037     1     8    11    11
 -0.0638138513     1     9     2     1
 0.0001372178     1     9     2     2
 0.0004314371     1     9     2     3
 0.0006516440     1     9     2     4
 0.0002210259     1     9     2     6
 0.0000772203     1     9     2     7
 -0.0000859265     1     9     2     8
 -0.0001932747     1     9     2    10
 0.0000969687     1     9     3     1
 0.0023977616     1     9     3     2
 -0.0004213250     1     9     3     3
 0.0002744771     1     9     3     4
 -0.0002115359     1     9     3     6
 0.0003008262     1     9     3     7
 -0.0000357843     1     9     3     8
 -0.0000664673     1     9     3    10
 -0.0446539330     1     9     4     1
 0.0025645309     1     9     4     2
 -0.0001092198     1     9     4     3
 -0.0048218160     1     9     4     4
 -0.0029624131     1     9     4     6
 -0.0002474132     1     9     4     7
 0.0013583414     1     9     4     8
 0.0021603375     1     9     4    10
 -0.0070728776     1     9     5     5
 0.0029882823     1     9     5    11
 0.0044933104     1     9     6     1
 0.0016899630     1     9     6     2
 -0.0007563005     1     9     6     3
 -0.0019461600     1     9     6     4
 -0.0020914503     1     9     6     6
 -0.0004439517     1     9     6     7
 0.0009911494     1     9     6     8
 0.0007380535     1     9     6    10
 -0.0482769974     1     9     7     1
 0.0011602029     1     9     7     2
 -0.0011845148     1     9     7     3
 -0.0004025514     1     9     7     4
 -0.0008984403     1     9     7     6
 -0.0002335874     1     9     7     7
 0.0004436662     1     9     7     8
 -0.0002936140     1     9     7    10
 0.0120370706     1     9     8     1
 -0.0010877814     1     9     8     2
 -0.0001996588     1     9     8     3
 0.0013836859     1     9     8     4
 0.0012423447     1     9     8     6
 0.0000724207     1     9     8     7
 -0.0008428583     1     9     8     8
 -0.0008444442     1     9     8    10
 -0.3608127603     1     9     9     1
 0.0005785442     1     9     9     2
 -0.0005267676     1     9     9     3
 0.0008562663     1     9     9     4
 0.0002972813     1     9     9     6
 0.0000798666     1     9     9     7
 -0.0001486417     1     9     9     8
 -0.0001603475     1     9     9    10
 -0.0190369635     1     9    10     1
 -0.0002587751     1     9    10     2
 -0.0037453318     1     9    10     3
 0.0019583844     1     9    10     4
 0.0003575035     1     9    10     6
 -0.0010967508     1     9    10     7
 -0.0000591509     1     9    10     8
 -0.0026582618     1     9    10    10
 0.0024445073     1     9    11     5
 -0.0015268094     1     9    11    11
 -0.0294911512     1    10     2     1
 0.0043818754     1    10     2     2
 0.0037047627     1    10     2     3
 -0.0019157608     1    10     2     4
 -0.0008789651     1    10     2     6
 0.0006359360     1    10     2     7
 0.0003188720     1    10     2     8
 0.0001932747     1    10     2     9
 -0.1886778287     1    10     3     1
 0.0174246686     1    10     3     2
 -0.0001801426     1    10     3     3
 0.0022880879     1    10     3     4
 -0.0027974783     1    10     3     6
 0.0017463700     1    10     3     7
 0.0014376598     1    10     3     8
 0.0000664673     1    10     3     9
 0.1471536728     1    10     4     1
 -0.0120561475     1    10     4     2
 0.0019885178     1    10     4     3
 -0.0021792013     1    10     4     4
 0.0017667871     1    10     4     6
 -0.0012973889     1    10     4     7
 -0.0007653715     1    10     4     8
 -0.0021603375     1    10     4     9
 0.0004916271     1    10     5     5
 -0.0001390832     1    10     5    11
 0.0533806808     1    10     6     1
 -0.0037501237     1    10     6     2
 0.0016747616     1    10     6     3
 -0.0016058988     1    10     6     4
 0.0007191753     1    10     6     6
 -0.0006226227     1    10     6     7
 -0.0003009165     1    10     6     8
 -0.0007380535     1    10     6     9
 -0.0894955474     1    10     7     1
 0.0042009711     1    10     7     2
 -0.0018865174     1    10     7     3
 0.0015105719     1    10     7     4
 -0.0009654595     1    10     7     6
 0.0012003184     1    10     7     7
 0.0002533055     1    10     7     8
 0.0002936140     1    10     7     9
 -0.0149371612     1    10     8     1
 0.0014945475     1    10     8     2
 0.0002239872     1    10     8     3
 -0.0000497559     1    10     8     4
 -0.0005447919     1    10     8     6
 0.0002308028     1    10     8     7
 0.0003432286     1    10     8     8
 0.0008444442     1    10     8     9
 -0.0190369635     1    10     9     1
 -0.0000798637     1    10     9     2
 -0.0037430409     1    10     9     3
 -0.0002344625     1    10     9     4
 -0.0003776651     1    10     9     6
 -0.0008026763     1    10     9     7
 0.0007849704     1    10     9     8
 0.0001603475     1    10     9     9
 -0.4925113793     1    10    10     1
 0.0120383888     1    10    10     2
 -0.0037154441     1    10    10     3
 0.0016036043     1    10    10     4
 -0.0037472002     1    10    10     6
 0.0018726064     1    10    10     7
 0.0010766685     1    10    10     8
 0.0026582618     1    10    10     9
 -0.0003780274     1    10    11     5
 0.0002943538     1    10    11    11
 -0.0035364925     1    11     2     5
 0.0016809929     1    11     3     5
 0.0010727556     1    11     4     5
 0.2159688250     1    11     5     1
 -0.0182695871     1    11     5     2
 0.0048298323     1    11     5     3
 -0.0022113474     1    11     5     4
 0.0042169948     1    11     5     6
 -0.0012777222     1    11     5     7
 -0.0020041092     1    11     5     8
 -0.0029882823     1    11     5     9
 0.0001390832     1    11     5    10
 -0.0006937643     1    11     6     5
 0.0009776114     1    11     7     5
 -0.0008906653     1    11     8     5
 -0.0005284662     1    11     9     5
 -0.0002953211     1    11    10     5
 -0.4322522637     1    11    11     1
 0.0078353478     1    11    11     2
 -0.0004121255     1    11    11     3
 0.0036785878     1    11    11     4
 -0.0009672204     1    11    11     6
 0.0018419525     1    11    11     7
 -0.0002107037     1    11    11     8
 0.0015268094     1    11    11     9
 -0.0002943538     1    11    11    10
 -0.9960077139     2     1     1     2
 0.0402898921     2     1     1     3
 -0.0677591875     2     1     1     4
 0.1021641457     2     1     1     6
 -0.0752028452     2     1     1     7
 -0.0301706551     2     1     1     8
 -0.0638138513     2     1     1     9
 -0.0294911512     2     1     1    10
 -0.0056006056     2     1     3     2
 -0.0324814629     2     1     3     3
 0.0039441760     2     1     3     4
 -0.0028155456     2     1     3     6
 -0.0082139322     2     1     3     7
 0.0022619249     2     1     3     8
 -0.0017932354     2     1     3     9
 -0.0125500060     2     1     3    10
 0.0020493987     2     1     4     2
 0.0044942953     2     1     4     3
 -0.0294765158     2     1     4     4
 -0.0123781112     2     1     4     6
 -0.0018854655     2     1     4     7
 0.0062864590     2     1     4     8
 -0.0017365104     2     1     4     9
 0.0092407324     2     1     4    10
 -0.0426422718     2     1     5     5
 0.0135076290     2     1     5    11
 -0.0002959875     2     1     6     2
 -0.0042631765     2     1     6     3
 -0.0147343655     2     1     6     4
 -0.0096775766     2     1     6     6
 -0.0035539536     2     1     6     7
 0.0050588284     2     1     6     8
 -0.0014491613     2     1     6     9
 0.0028654668     2     1     6    10
 -0.0017790275     2     1     7     2
 -0.0101976768     2     1     7     3
 -0.0026596636     2     1     7     4
 -0.0034221983     2     1     7     6
 -0.0037204096     2     1     7     7
 0.0020611162     2     1     7     8
 -0.0010719374     2     1     7     9
 -0.0035605854     2     1     7    10
 0.0002963872     2     1     8     2
 0.0033439273     2     1     8     3
 0.0078474928     2     1     8     4
 0.0052809344     2     1     8     6
 0.0022274075     2     1     8     7
 -0.0029278160     2     1     8     8
 0.0010003989     2     1     8     9
 -0.0011761942     2     1     8    10
 -0.0001372178     2     1     9     2
 -0.0023977616     2     1     9     3
 -0.0025645309     2     1     9     4
 -0.0016899630     2     1     9     6
 -0.0011602029     2     1     9     7
 0.0010877814     2     1     9     8
 -0.0005785442     2     1     9     9
 0.0002587751     2     1     9    10
 -0.0043818754     2     1    10     2
 -0.0174246686     2     1    10     3
 0.0120561475     2     1    10     4
 0.0037501237     2     1    10     6
 -0.0042009711     2     1    10     7
 -0.0014945475     2     1    10     8
 0.0000798637     2     1    10     9
 -0.0120383888     2     1    10    10
 0.0182695871     2     1    11     5
 -0.0078353478     2     1    11    11
 0.9960077139     2     2     1     1
 0.0056006056     2     2     1     3
 -0.0020493987     2     2     1     4
 0.0002959875     2     2     1     6
 0.0017790275     2     2     1     7
 -0.0002963872     2     2     1     8
 0.0001372178     2     2     1     9
 0.0043818754     2     2     1    10
 0.0056006056     2     2     3     1
 0.5246422443     2     2     3     3
 -0.0286957521     2     2     3     4
 0.0341972991     2     2     3     6
 0.0531951235     2     2     3     7
 -0.0115921305     2     2     3     8
 -0.0111423894     2     2     3     9
 0.0663825303     2     2     3    10
 -0.0020493987     2     2     4     1
 -0.0286957521     2     2     4     3
 0.5008867889     2     2     4     4
 0.0971661782     2     2     4     6
 0.0232955046     2     2     4     7
 -0.0324456520     2     2     4     8
 0.0170163007     2     2     4     9
 -0.0585918256     2     2     4    10
 0.5797809627     2     2     5     5
 -0.0868524938     2     2     5    11
 0.0002959875     2     2     6     1
 0.0341972991     2     2     6     3
 0.0971661782     2     2     6     4
 0.3365188242     2     2     6     6
 0.0106209128     2     2     6     7
 -0.0845876067     2     2     6     8
 -0.0044127190     2     2     6     9
 -0.0246491041     2     2     6    10
 0.0017790275     2     2     7     1
 0.0531951235     2     2     7     3
 0.0232955046     2     2     7     4
 0.0106209128     2     2     7     6
 0.2760953212     2     2     7     7
 -0.0330218205     2     2     7     8
 0.0291108609     2     2     7     9
 0.0569499109     2     2     7    10
 -0.0002963872     2     2     8     1
 -0.0115921305     2     2     8     3
 -0.0324456520     2     2     8     4