&FCI NORB=  7,NELEC=  6,MS2=0,
 ORBSYM=1,1,1,1,1,1,1
 ISYM=1,
&END
 0.2007462403     1     1     2     2
 -0.0259645554     1     1     2     4
 -0.0013288946     1     1     2     6
 0.2428168963     1     1     3     3
 0.0366678141     1     1     3     5
 0.0094145214     1     1     3     7
 -0.0259645554     1     1     4     2
 0.2435857419     1     1     4     4
 -0.0528517956     1     1     4     6
 0.0366678141     1     1     5     3
 0.1861173875     1     1     5     5
 -0.0019603287     1     1     5     7
 -0.0013288946     1     1     6     2
 -0.0528517956     1     1     6     4
 0.1881076332     1     1     6     6
 0.0094145214     1     1     7     3
 -0.0019603287     1     1     7     5
 0.2381815409     1     1     7     7
 -0.2007462403     1     2     2     1
 0.0665018673     1     2     2     3
 0.0045691289     1     2     2     5
 0.0099302360     1     2     2     7
 0.0547564444     1     2     3     4
 -0.0261582876     1     2     3     6
 0.0259645554     1     2     4     1
 0.0195206069     1     2     4     3
 -0.0451546842     1     2     4     5
 -0.0133985353     1     2     4     7
 -0.0331483598     1     2     5     4
 -0.0350841363     1     2     5     6
 0.0013288946     1     2     6     1
 -0.0169918974     1     2     6     3
 -0.0288536886     1     2     6     5
 0.0169240058     1     2     6     7
 -0.0074974640     1     2     7     4
 0.0155668893     1     2     7     6
 -0.0665018673     1     3     2     2
 0.0361318623     1     3     2     4
 -0.0093868852     1     3     2     6
 -0.2428168963     1     3     3     1
 -0.0263250331     1     3     3     5
 0.0064741106     1     3     3     7
 -0.0195206069     1     3     4     2
 -0.0061778680     1     3     4     4
 0.0178456622     1     3     4     6
 -0.0366678141     1     3     5     1
 0.0044835482     1     3     5     5
 0.0063638559     1     3     5     7
 0.0169918974     1     3     6     2
 0.0060605966     1     3     6     4
 0.0019460042     1     3     6     6
 -0.0094145214     1     3     7     1
 0.0023251001     1     3     7     5
 -0.0251971738     1     3     7     7
 0.0259645554     1     4     2     1
 -0.0361318623     1     4     2     3
 -0.0128826469     1     4     2     5
 -0.0062750343     1     4     2     7
 -0.0547564444     1     4     3     2
 0.0118868195     1     4     3     6
 -0.2435857419     1     4     4     1
 0.0061778680     1     4     4     3
 -0.0051999196     1     4     4     5
 0.0146413740     1     4     4     7
 0.0331483598     1     4     5     2
 -0.0030264869     1     4     5     6
 0.0528517956     1     4     6     1
 -0.0060605966     1     4     6     3
 0.0030545823     1     4     6     5
 -0.0099951023     1     4     6     7
 0.0074974640     1     4     7     2
 -0.0052124897     1     4     7     6
 0.0000000001     1     4     7     7
 -0.0045691289     1     5     2     2
 0.0128826469     1     5     2     4
 -0.0069790002     1     5     2     6
 -0.0366678141     1     5     3     1
 0.0263250331     1     5     3     3
 0.0044001173     1     5     3     7
 0.0451546842     1     5     4     2
 0.0051999196     1     5     4     4
 -0.0061158882     1     5     4     6
 -0.1861173875     1     5     5     1
 -0.0044835482     1     5     5     3
 0.0077198671     1     5     5     7
 0.0288536886     1     5     6     2
 -0.0030545823     1     5     6     4
 0.0025739187     1     5     6     6
 0.0019603287     1     5     7     1
 -0.0023251001     1     5     7     3
 0.0000000001     1     5     7     6
 0.0044155313     1     5     7     7
 0.0013288946     1     6     2     1
 0.0093868852     1     6     2     3
 0.0069790002     1     6     2     5
 0.0015576060     1     6     2     7
 0.0261582876     1     6     3     2
 -0.0118868195     1     6     3     4
 0.0528517956     1     6     4     1
 -0.0178456622     1     6     4     3
 0.0061158882     1     6     4     5
 -0.0047980945     1     6     4     7
 0.0350841363     1     6     5     2
 0.0030264869     1     6     5     4
 -0.0000000001     1     6     5     7
 -0.1881076332     1     6     6     1
 -0.0019460042     1     6     6     3
 -0.0025739187     1     6     6     5
 0.0072500764     1     6     6     7
 -0.0155668893     1     6     7     2
 0.0052124897     1     6     7     4
 -0.0000000001     1     6     7     5
 -0.0099302360     1     7     2     2
 0.0062750343     1     7     2     4
 -0.0015576060     1     7     2     6
 -0.0094145214     1     7     3     1
 -0.0064741106     1     7     3     3
 -0.0044001173     1     7     3     5
 0.0133985353     1     7     4     2
 -0.0146413740     1     7     4     4
 0.0047980945     1     7     4     6
 0.0019603287     1     7     5     1
 -0.0063638559     1     7     5     3
 -0.0077198671     1     7     5     5
 0.0000000001     1     7     5     6
 -0.0169240058     1     7     6     2
 0.0099951023     1     7     6     4
 -0.0072500764     1     7     6     6
 -0.2381815409     1     7     7     1
 0.0251971738     1     7     7     3
 -0.0000000001     1     7     7     4
 -0.0044155313     1     7     7     5
 -0.2007462403     2     1     1     2
 0.0259645554     2     1     1     4
 0.0013288946     2     1     1     6
 0.0665018673     2     1     3     2
 0.0195206069     2     1     3     4
 -0.0169918974     2     1     3     6
 0.0547564444     2     1     4     3
 -0.0331483598     2     1     4     5
 -0.0074974640     2     1     4     7
 0.0045691289     2     1     5     2
 -0.0451546842     2     1     5     4
 -0.0288536886     2     1     5     6
 -0.0261582876     2     1     6     3
 -0.0350841363     2     1     6     5
 0.0155668893     2     1     6     7
 0.0099302360     2     1     7     2
 -0.0133985353     2     1     7     4
 0.0169240058     2     1     7     6
 0.2007462403     2     2     1     1
 -0.0665018673     2     2     1     3
 -0.0045691289     2     2     1     5
 -0.0099302360     2     2     1     7
 -0.0665018673     2     2     3     1
 0.2025471874     2     2     3     3
 0.0134952495     2     2     3     5
 0.0104830195     2     2     3     7
 0.2256429767     2     2     4     4
 -0.0351424465     2     2     4     6
 -0.0045691289     2     2     5     1
 0.0134952495     2     2     5     3
 0.1890126252     2     2     5     5
 0.0009249951     2     2     5     7
 -0.0351424465     2     2     6     4
 0.1881181351     2     2     6     6
 -0.0099302360     2     2     7     1
 0.0104830195     2     2     7     3
 0.0009249951     2     2     7     5
 0.2109427439     2     2     7     7
 0.0665018673     2     3     1     2
 -0.0361318623     2     3     1     4
 0.0093868852     2     3     1     6
 -0.2025471874     2     3     3     2
 0.0717234214     2     3     3     4
 -0.0165326715     2     3     3     6
 -0.0547564444     2     3     4     1
 -0.0552884302     2     3     4     5
 -0.0063816101     2     3     4     7
 -0.0134952495     2     3     5     2
 -0.0296522158     2     3     5     4
 -0.0412900319     2     3     5     6
 0.0261582876     2     3     6     1
 -0.0282924371     2     3     6     5
 -0.0000000001     2     3     6     6
 0.0118491031     2     3     6     7
 -0.0104830195     2     3     7     2
 -0.0009778070     2     3     7     4
 0.0106480183     2     3     7     6
 -0.0259645554     2     4     1     1
 0.0361318623     2     4     1     3
 0.0128826469     2     4     1     5
 0.0062750343     2     4     1     7
 -0.0195206069     2     4     3     1
 -0.0717234214     2     4     3     3
 -0.0271758468     2     4     3     5
 -0.0052365593     2     4     3     7
 -0.2256429767     2     4     4     2
 0.0275003217     2     4     4     6
 0.0451546842     2     4     5     1
 0.0296522158     2     4     5     3
 0.0049601401     2     4     5     5
 -0.0022920225     2     4     5     7
 0.0351424465     2     4     6     2
 -0.0013488568     2     4     6     6
 -0.0000000001     2     4     6     7
 0.0133985353     2     4     7     1
 0.0009778070     2     4     7     3
 0.0012461478     2     4     7     5
 -0.0285768344     2     4     7     7
 0.0045691289     2     5     1     2
 -0.0128826469     2     5     1     4
 0.0069790002     2     5     1     6
 -0.0134952495     2     5     3     2
 0.0271758468     2     5     3     4
 -0.0139496220     2     5     3     6
 -0.0000000001     2     5     3     7
 0.0331483598     2     5     4     1
 0.0552884302     2     5     4     3
 -0.0035241318     2     5     4     7
 -0.1890126252     2     5     5     2
 -0.0049601401     2     5     5     4
 0.0114534479     2     5     5     6
 0.0350841363     2     5     6     1
 0.0282924371     2     5     6     3
 0.0000000001     2     5     6     6
 0.0003358194     2     5     6     7
 -0.0009249951     2     5     7     2
 -0.0012461478     2     5     7     4
 0.0038923216     2     5     7     6
 -0.0000000001     2     5     7     7
 -0.0013288946     2     6     1     1
 -0.0093868852     2     6     1     3
 -0.0069790002     2     6     1     5
 -0.0015576060     2     6     1     7
 0.0169918974     2     6     3     1
 0.0165326715     2     6     3     3
 0.0139496220     2     6     3     5
 0.0012689324     2     6     3     7
 0.0351424465     2     6     4     2
 -0.0275003217     2     6     4     4
 -0.0000000001     2     6     4     7
 0.0288536886     2     6     5     1
 0.0412900319     2     6     5     3
 -0.0114534479     2     6     5     5
 -0.0036025862     2     6     5     7
 -0.1881181351     2     6     6     2
 0.0000000001     2     6     6     3
 0.0013488568     2     6     6     4
 -0.0000000001     2     6     6     5
 -0.0000000004     2     6     6     7
 -0.0169240058     2     6     7     1
 -0.0106480183     2     6     7     3
 -0.0038923216     2     6     7     5
 0.0014776774     2     6     7     7
 0.0099302360     2     7     1     2
 -0.0062750343     2     7     1     4
 0.0015576060     2     7     1     6
 -0.0104830195     2     7     3     2
 0.0052365593     2     7     3     4
 0.0000000001     2     7     3     5
 -0.0012689324     2     7     3     6
 0.0074974640     2     7     4     1
 0.0063816101     2     7     4     3
 0.0035241318     2     7     4     5
 0.0000000001     2     7     4     6
 -0.0009249951     2     7     5     2
 0.0022920225     2     7     5     4
 0.0036025862     2     7     5     6
 -0.0155668893     2     7     6     1
 -0.0118491031     2     7     6     3
 0.0000000001     2     7     6     4
 -0.0003358194     2     7     6     5
 0.0000000004     2     7     6     6
 -0.2109427439     2     7     7     2
 0.0285768344     2     7     7     4
 0.0000000001     2     7     7     5
 -0.0014776774     2     7     7     6
 -0.2428168963     3     1     1     3
 -0.0366678141     3     1     1     5
 -0.0094145214     3     1     1     7
 -0.0665018673     3     1     2     2
 -0.0195206069     3     1     2     4
 0.0169918974     3     1     2     6
 0.0361318623     3     1     4     2
 -0.0061778680     3     1     4     4
 0.0060605966     3     1     4     6
 -0.0263250331     3     1     5     3
 0.0044835482     3     1     5     5
 0.0023251001     3     1     5     7
 -0.0093868852     3     1     6     2
 0.0178456622     3     1     6     4
 0.0019460042     3     1     6     6
 0.0064741106     3     1     7     3
 0.0063638559     3     1     7     5
 -0.0251971738     3     1     7     7
 -0.0547564444     3     2     1     4
 0.0261582876     3     2     1     6
 0.0665018673     3     2     2     1
 -0.2025471874     3     2     2     3
 -0.0134952495     3     2     2     5
 -0.0104830195     3     2     2     7
 -0.0361318623     3     2     4     1
 0.0717234214     3     2     4     3
 -0.0296522158     3     2     4     5
 -0.0009778070     3     2     4     7
 -0.0552884302     3     2     5     4
 -0.0282924371     3     2     5     6
 0.0093868852     3     2     6     1
 -0.0165326715     3     2     6     3
 -0.0412900319     3     2     6     5
 -0.0000000001     3     2     6     6
 0.0106480183     3     2     6     7
 -0.0063816101     3     2     7     4
 0.0118491031     3     2     7     6
 0.2428168963     3     3     1     1
 0.0263250331     3     3     1     5
 -0.0064741106     3     3     1     7
 0.2025471874     3     3     2     2
 -0.0717234214     3     3     2     4
 0.0165326715     3     3     2     6
 -0.0717234214     3     3     4     2
 0.2180387857     3     3     4     4
 -0.0261972068     3     3     4     6
 0.0263250331     3     3     5     1
 0.1839923652     3     3     5     5
 -0.0051007645     3     3     5     7
 0.0165326715     3     3     6     2
 -0.0261972068     3     3     6     4
 0.1808702962     3     3     6     6
 -0.0064741106     3     3     7     1
 -0.0051007645     3     3     7     5
 0.2116471555     3     3     7     7
 0.0547564444     3     4     1     2
 -0.0118868195     3     4     1     6
 0.0195206069     3     4     2     1
 0.0717234214     3     4     2     3
 0.0271758468     3     4     2     5
 0.0052365593     3     4     2     7
 0.0061778680     3     4     4     1
 -0.2180387857     3     4     4     3
 -0.0607212179     3     4     4     5
 -0.0000000001     3     4     4     6
 -0.0144272081     3     4     4     7
 0.0552884302     3     4     5     2
 -0.0488033475     3     4     5     6
 -0.0178456622     3     4     6     1
 0.0261972068     3     4     6     3
 -0.0161812173     3     4     6     5
 -0.0000000004     3     4     6     6
 0.0153544791     3     4     6     7
 0.0063816101     3     4     7     2
 0.0069352883     3     4     7     6
 0.0366678141     3     5     1     1
 -0.0263250331     3     5     1     3
 -0.0044001173     3     5     1     7
 0.0134952495     3     5     2     2
 -0.0271758468     3     5     2     4
 0.0139496220     3     5     2     6
 0.0000000001     3     5     2     7
 0.0296522158     3     5     4     2
 0.0607212179     3     5     4     4
 -0.0328153864     3     5     4     6
 -0.0044835482     3     5     5     1
 -0.1839923652     3     5     5     3
 -0.0000000002     3     5     5     6
 -0.0011434682     3     5     5     7
 0.0412900319     3     5     6     2
 0.0161812173     3     5     6     4
 -0.0049180103     3     5     6     6
 -0.0000000001     3     5     6     7
 -0.0063638559     3     5     7     1
 0.0051007645     3     5     7     3
 -0.0000000003     3     5     7     6
 0.0249175767     3     5     7     7
 -0.0261582876     3     6     1     2
 0.0118868195     3     6     1     4
 -0.0169918974     3     6     2     1
 -0.0165326715     3     6     2     3
 -0.0139496220     3     6     2     5
 -0.0012689324     3     6     2     7
 -0.0060605966     3     6     4     1
 0.0261972068     3     6     4     3
 0.0000000001     3     6     4     4
 0.0328153864     3     6     4     5
 0.0085068744     3     6     4     7
 0.0282924371     3     6     5     2
 0.0488033475     3     6     5     4
 0.0000000002     3     6     5     5
 0.0000000002     3     6     5     7
 -0.0019460042     3     6     6     1
 0.0000000001     3     6     6     2
 -0.1808702962     3     6     6     3
 0.0000000004     3     6     6     4
 0.0049180103     3     6     6     5
 -0.0060210795     3     6     6     7
 -0.0118491031     3     6     7     2
 -0.0069352883     3     6     7     4
 0.0000000003     3     6     7     5
 0.0000000005     3     6     7     7
 0.0094145214     3     7     1     1
 0.0064741106     3     7     1     3
 0.0044001173     3     7     1     5
 0.0104830195     3     7     2     2
 -0.0052365593     3     7     2     4
 -0.0000000001     3     7     2     5
 0.0012689324     3     7     2     6
 0.0009778070     3     7     4     2
 0.0144272081     3     7     4     4
 -0.0085068744     3     7     4     6
 -0.0023251001     3     7     5     1
 0.0051007645     3     7     5     3
 0.0011434682     3     7     5     5
 -0.0000000002     3     7     5     6
 -0.0106480183     3     7     6     2
 -0.0153544791     3     7     6     4
 0.0000000001     3     7     6     5
 0.0060210795     3     7     6     6
 0.0251971738     3     7     7     1
 -0.2116471555     3     7     7     3
 -0.0249175767     3     7     7     5
 -0.0000000005     3     7     7     6
 0.0259645554     4     1     1     2
 -0.2435857419     4     1     1     4
 0.0528517956     4     1     1     6
 -0.0547564444     4     1     2     3
 0.0331483598     4     1     2     5
 0.0074974640     4     1     2     7
 -0.0361318623     4     1     3     2
 0.0061778680     4     1     3     4
 -0.0060605966     4     1     3     6
 -0.0128826469     4     1     5     2
 -0.0051999196     4     1     5     4
 0.0030545823     4     1     5     6
 0.0118868195     4     1     6     3
 -0.0030264869     4     1     6     5
 -0.0052124897     4     1     6     7
 -0.0062750343     4     1     7     2
 0.0146413740     4     1     7     4
 -0.0099951023     4     1     7     6
 0.0000000001     4     1     7     7
 -0.0259645554     4     2     1     1
 -0.0195206069     4     2     1     3
 0.0451546842     4     2     1     5
 0.0133985353     4     2     1     7
 -0.2256429767     4     2     2     4
 0.0351424465     4     2     2     6
 0.0361318623     4     2     3     1
 -0.0717234214     4     2     3     3
 0.0296522158     4     2     3     5
 0.0009778070     4     2     3     7
 0.0128826469     4     2     5     1
 -0.0271758468     4     2     5     3
 0.0049601401     4     2     5     5
 0.0012461478     4     2     5     7
 0.0275003217     4     2     6     4
 -0.0013488568     4     2     6     6
 0.0062750343     4     2     7     1
 -0.0052365593     4     2     7     3
 -0.0022920225     4     2     7     5
 -0.0000000001     4     2     7     6
 -0.0285768344     4     2     7     7
 0.0195206069     4     3     1     2
 0.0061778680     4     3     1     4
 -0.0178456622     4     3     1     6
 0.0547564444     4     3     2     1
 0.0552884302     4     3     2     5
 0.0063816101     4     3     2     7
 0.0717234214     4     3     3     2
 -0.2180387857     4     3     3     4
 0.0261972068     4     3     3     6
 0.0271758468     4     3     5     2
 -0.0607212179     4     3     5     4
 -0.0161812173     4     3     5     6
 -0.0118868195     4     3     6     1
 -0.0000000001     4     3     6     4
 -0.0488033475     4     3     6     5
 -0.0000000004     4     3     6     6
 0.0069352883     4     3     6     7
 0.0052365593     4     3     7     2
 -0.0144272081     4     3     7     4
 0.0153544791     4     3     7     6
 0.2435857419     4     4     1     1
 -0.0061778680     4     4     1     3
 0.0051999196     4     4     1     5
 -0.0146413740     4     4     1     7
 0.2256429767     4     4     2     2
 -0.0275003217     4     4     2     6
 -0.0061778680     4     4     3     1
 0.2180387857     4     4     3     3
 0.0607212179     4     4     3     5
 0.0000000001     4     4     3     6
 0.0144272081     4     4     3     7
 0.0051999196     4     4     5     1
 0.0607212179     4     4     5     3
 0.1491679227     4     4     5     5
 -0.0068350942     4     4     5     7
 -0.0275003217     4     4     6     2
 0.0000000001     4     4     6     3
 0.1690954282     4     4     6     6
 0.0000000003     4     4     6     7
 -0.0146413740     4     4     7     1
 0.0144272081     4     4     7     3
 -0.0068350942     4     4     7     5
 0.0000000003     4     4     7     6
 0.1960720769     4     4     7     7
 -0.0451546842     4     5     1     2
 -0.0051999196     4     5     1     4
 0.0061158882     4     5     1     6
 -0.0331483598     4     5     2     1
 -0.0552884302     4     5     2     3
 0.0035241318     4     5     2     7
 -0.0296522158     4     5     3     2
 -0.0607212179     4     5     3     4
 0.0328153864     4     5     3     6
 -0.0049601401     4     5     5     2
 -0.1491679227     4     5     5     4
 0.0518556182     4     5     5     6
 0.0000000003     4     5     5     7
 0.0030264869     4     5     6     1
 0.0488033475     4     5     6     3
 -0.0000000005     4     5     6     6
 -0.0177193838     4     5     6     7
 0.0022920225     4     5     7     2
 0.0068350942     4     5     7     4
 -0.0110857495     4     5     7     6
 0.0000000003     4     5     7     7
 -0.0528517956     4     6     1     1
 0.0178456622     4     6     1     3
 -0.0061158882     4     6     1     5
 0.0047980945     4     6     1     7
 -0.0351424465     4     6     2     2
 0.0275003217     4     6     2     4
 0.0000000001     4     6     2     7
 0.0060605966     4     6     3     1
 -0.0261972068     4     6     3     3
 -0.0000000001     4     6     3     4
 -0.0328153864     4     6     3     5
 -0.0085068744     4     6     3     7
 -0.0030545823     4     6     5     1
 0.0161812173     4     6     5     3
 -0.0518556182     4     6     5     5
 -0.0066322666     4     6     5     7
 0.0013488568     4     6     6     2
 0.0000000004     4     6     6     3
 -0.1690954282     4     6     6     4
 0.0000000005     4     6     6     5
 0.0000000015     4     6     6     7
 0.0099951023     4     6     7     1
 0.0000000001     4     6     7     2
 -0.0153544791     4     6     7     3
 -0.0000000003     4     6     7     4
 0.0110857495     4     6     7     5
 -0.0312700212     4     6     7     7
 -0.0133985353     4     7     1     2
 0.0146413740     4     7     1     4
 -0.0047980945     4     7     1     6
 -0.0074974640     4     7     2     1
 -0.0063816101     4     7     2     3
 -0.0035241318     4     7     2     5
 -0.0000000001     4     7     2     6
 -0.0009778070     4     7     3     2
 -0.0144272081     4     7     3     4
 0.0085068744     4     7     3     6
 -0.0012461478     4     7     5     2
 0.0068350942     4     7     5     4
 -0.0000000003     4     7     5     5
 0.0066322666     4     7     5     6
 0.0052124897     4     7     6     1
 -0.0069352883     4     7     6     3
 -0.0000000003     4     7     6     4
 0.0177193838     4     7     6     5
 -0.0000000015     4     7     6     6
 -0.0000000001     4     7     7     1
 0.0285768344     4     7     7     2
 -0.1960720769     4     7     7     4
 -0.0000000003     4     7     7     5
 0.0312700212     4     7     7     6
 -0.0366678141     5     1     1     3
 -0.1861173875     5     1     1     5
 0.0019603287     5     1     1     7
 -0.0045691289     5     1     2     2
 0.0451546842     5     1     2     4
 0.0288536886     5     1     2     6
 0.0263250331     5     1     3     3
 -0.0044835482     5     1     3     5
 -0.0023251001     5     1     3     7
 0.0128826469     5     1     4     2
 0.0051999196     5     1     4     4
 -0.0030545823     5     1     4     6
 -0.0069790002     5     1     6     2
 -0.0061158882     5     1     6     4
 0.0025739187     5     1     6     6
 0.0000000001     5     1     6     7
 0.0044001173     5     1     7     3
 0.0077198671     5     1     7     5
 0.0044155313     5     1     7     7
 0.0331483598     5     2     1     4
 0.0350841363     5     2     1     6
 0.0045691289     5     2     2     1
 -0.0134952495     5     2     2     3
 -0.1890126252     5     2     2     5
 -0.0009249951     5     2     2     7
 0.0552884302     5     2     3     4
 0.0282924371     5     2     3     6
 -0.0128826469     5     2     4     1
 0.0271758468     5     2     4     3
 -0.0049601401     5     2     4     5
 -0.0012461478     5     2     4     7
 0.0069790002     5     2     6     1
 -0.0139496220     5     2     6     3
 0.0114534479     5     2     6     5
 0.0000000001     5     2     6     6
 0.0038923216     5     2     6     7
 -0.0000000001     5     2     7     3
 -0.0035241318     5     2     7     4
 0.0003358194     5     2     7     6
 -0.0000000001     5     2     7     7
 0.0366678141     5     3     1     1
 -0.0044835482     5     3     1     5
 -0.0063638559     5     3     1     7
 0.0134952495     5     3     2     2
 0.0296522158     5     3     2     4
 0.0412900319     5     3     2     6
 -0.0263250331     5     3     3     1
 -0.1839923652     5     3     3     5
 0.0051007645     5     3     3     7
 -0.0271758468     5     3     4     2
 0.0607212179     5     3     4     4
 0.0161812173     5     3     4     6
 0.0139496220     5     3     6     2
 -0.0328153864     5     3     6     4
 -0.0000000002     5     3     6     5
 -0.0049180103     5     3     6     6
 -0.0000000003     5     3     6     7
 -0.0044001173     5     3     7     1
 0.0000000001     5     3     7     2
 -0.0011434682     5     3     7     5
 -0.0000000001     5     3     7     6
 0.0249175767     5     3     7     7
 -0.0331483598     5     4     1     2
 0.0030264869     5     4     1     6
 -0.0451546842     5     4     2     1
 -0.0296522158     5     4     2     3
 -0.0049601401     5     4     2     5
 0.0022920225     5     4     2     7
 -0.0552884302     5     4     3     2
 0.0488033475     5     4     3     6
 -0.0051999196     5     4     4     1
 -0.0607212179     5     4     4     3
 -0.1491679227     5     4     4     5
 0.0068350942     5     4     4     7
 0.0061158882     5     4     6     1
 0.0328153864     5     4     6     3
 0.0518556182     5     4     6     5
 -0.0000000005     5     4     6     6
 -0.0110857495     5     4     6     7
 0.0035241318     5     4     7     2
 0.0000000003     5     4     7     5
 -0.0177193838     5     4     7     6
 0.0000000003     5     4     7     7
 0.1861173875     5     5     1     1
 0.0044835482     5     5     1     3
 -0.0077198671     5     5     1     7
 0.1890126252     5     5     2     2
 0.0049601401     5     5     2     4
 -0.0114534479     5     5     2     6
 0.0044835482     5     5     3     1
 0.1839923652     5     5     3     3
 0.0000000002     5     5     3     6
 0.0011434682     5     5     3     7
 0.0049601401     5     5     4     2
 0.1491679227     5     5     4     4
 -0.0518556182     5     5     4     6
 -0.0000000003     5     5     4     7
 -0.0114534479     5     5     6     2
 0.0000000002     5     5     6     3
 -0.0518556182     5     5     6     4
 0.1303140368     5     5     6     6
 -0.0000000007     5     5     6     7
 -0.0077198671     5     5     7     1
 0.0011434682     5     5     7     3
 -0.0000000003     5     5     7     4
 -0.0000000007     5     5     7     6
 0.1569105448     5     5     7     7
 -0.0350841363     5     6     1     2
 -0.0030264869     5     6     1     4
 0.0000000001     5     6     1     7
 -0.0288536886     5     6     2     1
 -0.0412900319     5     6     2     3
 0.0114534479     5     6     2     5
 0.0036025862     5     6     2     7
 -0.0282924371     5     6     3     2
 -0.0488033475     5     6     3     4
 -0.0000000002     5     6     3     5
 -0.0000000002     5     6     3     7
 0.0030545823     5     6     4     1
 -0.0161812173     5     6     4     3
 0.0518556182     5     6     4     5
 0.0066322666     5     6     4     7
 -0.0025739187     5     6     6     1
 -0.0000000001     5     6     6     2
 0.0049180103     5     6     6     3
 0.0000000005     5     6     6     4
 -0.1303140368     5     6     6     5
 -0.0097600556     5     6     6     7
 -0.0003358194     5     6     7     2
 0.0000000001     5     6     7     3
 0.0177193838     5     6     7     4
 0.0000000007     5     6     7     5
 0.0000000008     5     6     7     7
 -0.0019603287     5     7     1     1
 0.0063638559     5     7     1     3
 0.0077198671     5     7     1     5
 -0.0000000001     5     7     1     6
 0.0009249951     5     7     2     2
 -0.0022920225     5     7     2     4
 -0.0036025862     5     7     2     6
 0.0023251001     5     7     3     1
 -0.0051007645     5     7     3     3
 -0.0011434682     5     7     3     5
 0.0000000002     5     7     3     6
 0.0012461478     5     7     4     2
 -0.0068350942     5     7     4     4
 0.0000000003     5     7     4     5
 -0.0066322666     5     7     4     6
 -0.0000000001     5     7     6     1
 -0.0038923216     5     7     6     2
 0.0000000003     5     7     6     3
 0.0110857495     5     7     6     4
 0.0000000007     5     7     6     5
 0.0097600556     5     7     6     6
 -0.0044155313     5     7     7     1
 0.0000000001     5     7     7     2
 -0.0249175767     5     7     7     3
 -0.0000000003     5     7     7     4
 -0.1569105448     5     7     7     5
 -0.0000000008     5     7     7     6
 0.0013288946     6     1     1     2
 0.0528517956     6     1     1     4
 -0.1881076332     6     1     1     6
 0.0261582876     6     1     2     3
 0.0350841363     6     1     2     5
 -0.0155668893     6     1     2     7
 0.0093868852     6     1     3     2
 -0.0178456622     6     1     3     4
 -0.0019460042     6     1     3     6
 -0.0118868195     6     1     4     3
 0.0030264869     6     1     4     5
 0.0052124897     6     1     4     7
 0.0069790002     6     1     5     2
 0.0061158882     6     1     5     4
 -0.0025739187     6     1     5     6
 -0.0000000001     6     1     5     7
 0.0015576060     6     1     7     2
 -0.0047980945     6     1     7     4
 -0.0000000001     6     1     7     5
 0.0072500764     6     1     7     6
 -0.0013288946     6     2     1     1
 0.0169918974     6     2     1     3
 0.0288536886     6     2     1     5
 -0.0169240058     6     2     1     7
 0.0351424465     6     2     2     4
 -0.1881181351     6     2     2     6
 -0.0093868852     6     2     3     1
 0.0165326715     6     2     3     3
 0.0412900319     6     2     3     5
 0.0000000001     6     2     3     6
 -0.0106480183     6     2     3     7
 -0.0275003217     6     2     4     4
 0.0013488568     6     2     4     6
 -0.0069790002     6     2     5     1
 0.0139496220     6     2     5     3
 -0.0114534479     6     2     5     5
 -0.0000000001     6     2     5     6
 -0.0038923216     6     2     5     7
 -0.0015576060     6     2     7     1