&FCI NORB=  6,NELEC= 10,MS2=0,
 ORBSYM=1,1,1,1,1,1
 ISYM=1,
&END
 0.9847129127     1     1     2     2
 -0.0657679367     1     1     2     4
 0.0944463355     1     1     2     6
 0.8721651265     1     1     3     3
 -0.0657679367     1     1     4     2
 0.9473220340     1     1     4     4
 0.0482799622     1     1     4     6
 0.9893480002     1     1     5     5
 0.0944463355     1     1     6     2
 0.0482799622     1     1     6     4
 0.2800085806     1     1     6     6
 -0.9847129127     1     2     2     1
 0.0071098613     1     2     2     4
 0.0008096908     1     2     2     6
 0.0313470743     1     2     3     3
 0.0657679367     1     2     4     1
 0.0359425977     1     2     4     4
 0.0050949932     1     2     4     6
 0.0404620946     1     2     5     5
 -0.0944463355     1     2     6     1
 0.0046899708     1     2     6     4
 0.0010265607     1     2     6     6
 -0.8721651265     1     3     3     1
 -0.0313470743     1     3     3     2
 0.0105988908     1     3     3     4
 -0.0035187580     1     3     3     6
 0.0657679367     1     4     2     1
 -0.0071098613     1     4     2     2
 -0.0001377571     1     4     2     6
 -0.0105988908     1     4     3     3
 -0.9473220340     1     4     4     1
 -0.0359425977     1     4     4     2
 -0.0066956778     1     4     4     6
 -0.0134971053     1     4     5     5
 -0.0482799622     1     4     6     1
 -0.0046899708     1     4     6     2
 -0.0025607504     1     4     6     6
 -0.9893480002     1     5     5     1
 -0.0404620946     1     5     5     2
 0.0134971053     1     5     5     4
 -0.0062088493     1     5     5     6
 -0.0944463355     1     6     2     1
 -0.0008096908     1     6     2     2
 0.0001377571     1     6     2     4
 0.0035187580     1     6     3     3
 -0.0482799622     1     6     4     1
 -0.0050949932     1     6     4     2
 0.0066956778     1     6     4     4
 0.0062088493     1     6     5     5
 -0.2800085806     1     6     6     1
 -0.0010265607     1     6     6     2
 0.0025607504     1     6     6     4
 -0.9847129127     2     1     1     2
 0.0657679367     2     1     1     4
 -0.0944463355     2     1     1     6
 0.0313470743     2     1     3     3
 0.0071098613     2     1     4     2
 0.0359425977     2     1     4     4
 0.0046899708     2     1     4     6
 0.0404620946     2     1     5     5
 0.0008096908     2     1     6     2
 0.0050949932     2     1     6     4
 0.0010265607     2     1     6     6
 0.9847129127     2     2     1     1
 -0.0071098613     2     2     1     4
 -0.0008096908     2     2     1     6
 0.5290169918     2     2     3     3
 -0.0071098613     2     2     4     1
 0.5497068677     2     2     4     4
 0.0203045105     2     2     4     6
 0.5748389954     2     2     5     5
 -0.0008096908     2     2     6     1
 0.0203045105     2     2     6     4
 0.2560389708     2     2     6     6
 -0.0313470743     2     3     3     1
 -0.5290169918     2     3     3     2
 0.0012926405     2     3     3     4
 -0.0442205712     2     3     3     6
 -0.0657679367     2     4     1     1
 0.0071098613     2     4     1     2
 0.0001377571     2     4     1     6
 -0.0012926405     2     4     3     3
 -0.0359425977     2     4     4     1
 -0.5497068677     2     4     4     2
 -0.0438413009     2     4     4     6
 -0.0034214747     2     4     5     5
 -0.0050949932     2     4     6     1
 -0.0203045105     2     4     6     2
 0.0102742126     2     4     6     6
 -0.0404620946     2     5     5     1
 -0.5748389954     2     5     5     2
 0.0034214747     2     5     5     4
 -0.0440713478     2     5     5     6
 0.0944463355     2     6     1     1
 0.0008096908     2     6     1     2
 -0.0001377571     2     6     1     4
 0.0442205712     2     6     3     3
 -0.0046899708     2     6     4     1
 -0.0203045105     2     6     4     2
 0.0438413009     2     6     4     4
 0.0440713478     2     6     5     5
 -0.0010265607     2     6     6     1
 -0.2560389708     2     6     6     2
 -0.0102742126     2     6     6     4
 -0.8721651265     3     1     1     3
 -0.0313470743     3     1     2     3
 0.0105988908     3     1     4     3
 -0.0035187580     3     1     6     3
 -0.0313470743     3     2     1     3
 -0.5290169918     3     2     2     3
 0.0012926405     3     2     4     3
 -0.0442205712     3     2     6     3
 0.8721651265     3     3     1     1
 0.0313470743     3     3     1     2
 -0.0105988908     3     3     1     4
 0.0035187580     3     3     1     6
 0.0313470743     3     3     2     1
 0.5290169918     3     3     2     2
 -0.0012926405     3     3     2     4
 0.0442205712     3     3     2     6
 -0.0105988908     3     3     4     1
 -0.0012926405     3     3     4     2
 0.5621875194     3     3     4     4
 0.0234684497     3     3     4     6
 0.5836292136     3     3     5     5
 0.0035187580     3     3     6     1
 0.0442205712     3     3     6     2
 0.0234684497     3     3     6     4
 0.2581101696     3     3     6     6
 0.0105988908     3     4     1     3
 0.0012926405     3     4     2     3
 -0.5621875194     3     4     4     3
 -0.0234684497     3     4     6     3
 -0.5836292136     3     5     5     3
 -0.0035187580     3     6     1     3
 -0.0442205712     3     6     2     3
 -0.0234684497     3     6     4     3
 -0.2581101696     3     6     6     3
 0.0657679367     4     1     1     2
 -0.9473220340     4     1     1     4
 -0.0482799622     4     1     1     6
 -0.0071098613     4     1     2     2
 -0.0359425977     4     1     2     4
 -0.0046899708     4     1     2     6
 -0.0105988908     4     1     3     3
 -0.0134971053     4     1     5     5
 -0.0001377571     4     1     6     2
 -0.0066956778     4     1     6     4
 -0.0025607504     4     1     6     6
 -0.0657679367     4     2     1     1
 -0.0359425977     4     2     1     4
 -0.0050949932     4     2     1     6
 0.0071098613     4     2     2     1
 -0.5497068677     4     2     2     4
 -0.0203045105     4     2     2     6
 -0.0012926405     4     2     3     3
 -0.0034214747     4     2     5     5
 0.0001377571     4     2     6     1
 -0.0438413009     4     2     6     4
 0.0102742126     4     2     6     6
 0.0105988908     4     3     3     1
 0.0012926405     4     3     3     2
 -0.5621875194     4     3     3     4
 -0.0234684497     4     3     3     6
 0.9473220340     4     4     1     1
 0.0359425977     4     4     1     2
 0.0066956778     4     4     1     6
 0.0359425977     4     4     2     1
 0.5497068677     4     4     2     2
 0.0438413009     4     4     2     6
 0.5621875194     4     4     3     3
 0.6007834267     4     4     5     5
 0.0066956778     4     4     6     1
 0.0438413009     4     4     6     2
 0.2470955394     4     4     6     6
 0.0134971053     4     5     5     1
 0.0034214747     4     5     5     2
 -0.6007834267     4     5     5     4
 -0.0270427838     4     5     5     6
 0.0482799622     4     6     1     1
 0.0050949932     4     6     1     2
 -0.0066956778     4     6     1     4
 0.0046899708     4     6     2     1
 0.0203045105     4     6     2     2
 -0.0438413009     4     6     2     4
 0.0234684497     4     6     3     3
 0.0270427838     4     6     5     5
 0.0025607504     4     6     6     1
 -0.0102742126     4     6     6     2
 -0.2470955394     4     6     6     4
 -0.9893480002     5     1     1     5
 -0.0404620946     5     1     2     5
 0.0134971053     5     1     4     5
 -0.0062088493     5     1     6     5
 -0.0404620946     5     2     1     5
 -0.5748389954     5     2     2     5
 0.0034214747     5     2     4     5
 -0.0440713478     5     2     6     5
 -0.5836292136     5     3     3     5
 0.0134971053     5     4     1     5
 0.0034214747     5     4     2     5
 -0.6007834267     5     4     4     5
 -0.0270427838     5     4     6     5
 0.9893480002     5     5     1     1
 0.0404620946     5     5     1     2
 -0.0134971053     5     5     1     4
 0.0062088493     5     5     1     6
 0.0404620946     5     5     2     1
 0.5748389954     5     5     2     2
 -0.0034214747     5     5     2     4
 0.0440713478     5     5     2     6
 0.5836292136     5     5     3     3
 -0.0134971053     5     5     4     1
 -0.0034214747     5     5     4     2
 0.6007834267     5     5     4     4
 0.0270427838     5     5     4     6
 0.0062088493     5     5     6     1
 0.0440713478     5     5     6     2
 0.0270427838     5     5     6     4
 0.2531830777     5     5     6     6
 -0.0062088493     5     6     1     5
 -0.0440713478     5     6     2     5
 -0.0270427838     5     6     4     5
 -0.2531830777     5     6     6     5
 -0.0944463355     6     1     1     2
 -0.0482799622     6     1     1     4
 -0.2800085806     6     1     1     6
 -0.0008096908     6     1     2     2
 -0.0050949932     6     1     2     4
 -0.0010265607     6     1     2     6
 0.0035187580     6     1     3     3
 0.0001377571     6     1     4     2
 0.0066956778     6     1     4     4
 0.0025607504     6     1     4     6
 0.0062088493     6     1     5     5
 0.0944463355     6     2     1     1
 -0.0046899708     6     2     1     4
 -0.0010265607     6     2     1     6
 0.0008096908     6     2     2     1
 -0.0203045105     6     2     2     4
 -0.2560389708     6     2     2     6
 0.0442205712     6     2     3     3
 -0.0001377571     6     2     4     1
 0.0438413009     6     2     4     4
 -0.0102742126     6     2     4     6
 0.0440713478     6     2     5     5
 -0.0035187580     6     3     3     1
 -0.0442205712     6     3     3     2
 -0.0234684497     6     3     3     4
 -0.2581101696     6     3     3     6
 0.0482799622     6     4     1     1
 0.0046899708     6     4     1     2
 0.0025607504     6     4     1     6
 0.0050949932     6     4     2     1
 0.0203045105     6     4     2     2
 -0.0102742126     6     4     2     6
 0.0234684497     6     4     3     3
 -0.0066956778     6     4     4     1
 -0.0438413009     6     4     4     2
 -0.2470955394     6     4     4     6
 0.0270427838     6     4     5     5
 -0.0062088493     6     5     5     1
 -0.0440713478     6     5     5     2
 -0.0270427838     6     5     5     4
 -0.2531830777     6     5     5     6
 0.2800085806     6     6     1     1
 0.0010265607     6     6     1     2
 -0.0025607504     6     6     1     4
 0.0010265607     6     6     2     1
 0.2560389708     6     6     2     2
 0.0102742126     6     6     2     4
 0.2581101696     6     6     3     3
 -0.0025607504     6     6     4     1
 0.0102742126     6     6     4     2
 0.2470955394     6     6     4     4
 0.2531830777     6     6     5     5
0.0 0 0 0 0
 0.9847129127     1     1     2     2
 -0.0657679367     1     1     2     4
 0.0944463355     1     1     2     6
 0.8721651265     1     1     3     3
 -0.0657679367     1     1     4     2
 0.9473220340     1     1     4     4
 0.0482799622     1     1     4     6
 0.9893480002     1     1     5     5
 0.0944463355     1     1     6     2
 0.0482799622     1     1     6     4
 0.2800085806     1     1     6     6
 -0.9847129127     1     2     2     1
 0.0071098613     1     2     2     4
 0.0008096908     1     2     2     6
 0.0313470743     1     2     3     3
 0.0657679367     1     2     4     1
 0.0359425977     1     2     4     4
 0.0050949932     1     2     4     6
 0.0404620946     1     2     5     5
 -0.0944463355     1     2     6     1
 0.0046899708     1     2     6     4
 0.0010265607     1     2     6     6
 -0.8721651265     1     3     3     1
 -0.0313470743     1     3     3     2
 0.0105988908     1     3     3     4
 -0.0035187580     1     3     3     6
 0.0657679367     1     4     2     1
 -0.0071098613     1     4     2     2
 -0.0001377571     1     4     2     6
 -0.0105988908     1     4     3     3
 -0.9473220340     1     4     4     1
 -0.0359425977     1     4     4     2
 -0.0066956778     1     4     4     6
 -0.0134971053     1     4     5     5
 -0.0482799622     1     4     6     1
 -0.0046899708     1     4     6     2
 -0.0025607504     1     4     6     6
 -0.9893480002     1     5     5     1
 -0.0404620946     1     5     5     2
 0.0134971053     1     5     5     4
 -0.0062088493     1     5     5     6
 -0.0944463355     1     6     2     1
 -0.0008096908     1     6     2     2
 0.0001377571     1     6     2     4
 0.0035187580     1     6     3     3
 -0.0482799622     1     6     4     1
 -0.0050949932     1     6     4     2
 0.0066956778     1     6     4     4
 0.0062088493     1     6     5     5
 -0.2800085806     1     6     6     1
 -0.0010265607     1     6     6     2
 0.0025607504     1     6     6     4
 -0.9847129127     2     1     1     2
 0.0657679367     2     1     1     4
 -0.0944463355     2     1     1     6
 0.0313470743     2     1     3     3
 0.0071098613     2     1     4     2
 0.0359425977     2     1     4     4
 0.0046899708     2     1     4     6
 0.0404620946     2     1     5     5
 0.0008096908     2     1     6     2
 0.0050949932     2     1     6     4
 0.0010265607     2     1     6     6
 0.9847129127     2     2     1     1
 -0.0071098613     2     2     1     4
 -0.0008096908     2     2     1     6
 0.5290169918     2     2     3     3
 -0.0071098613     2     2     4     1
 0.5497068677     2     2     4     4
 0.0203045105     2     2     4     6
 0.5748389954     2     2     5     5
 -0.0008096908     2     2     6     1
 0.0203045105     2     2     6     4
 0.2560389708     2     2     6     6
 -0.0313470743     2     3     3     1
 -0.5290169918     2     3     3     2
 0.0012926405     2     3     3     4
 -0.0442205712     2     3     3     6
 -0.0657679367     2     4     1     1
 0.0071098613     2     4     1     2
 0.0001377571     2     4     1     6
 -0.0012926405     2     4     3     3
 -0.0359425977     2     4     4     1
 -0.5497068677     2     4     4     2
 -0.0438413009     2     4     4     6
 -0.0034214747     2     4     5     5
 -0.0050949932     2     4     6     1
 -0.0203045105     2     4     6     2
 0.0102742126     2     4     6     6
 -0.0404620946     2     5     5     1
 -0.5748389954     2     5     5     2
 0.0034214747     2     5     5     4
 -0.0440713478     2     5     5     6
 0.0944463355     2     6     1     1
 0.0008096908     2     6     1     2
 -0.0001377571     2     6     1     4
 0.0442205712     2     6     3     3
 -0.0046899708     2     6     4     1
 -0.0203045105     2     6     4     2
 0.0438413009     2     6     4     4
 0.0440713478     2     6     5     5
 -0.0010265607     2     6     6     1
 -0.2560389708     2     6     6     2
 -0.0102742126     2     6     6     4
 -0.8721651265     3     1     1     3
 -0.0313470743     3     1     2     3
 0.0105988908     3     1     4     3
 -0.0035187580     3     1     6     3
 -0.0313470743     3     2     1     3
 -0.5290169918     3     2     2     3
 0.0012926405     3     2     4     3
 -0.0442205712     3     2     6     3
 0.8721651265     3     3     1     1
 0.0313470743     3     3     1     2
 -0.0105988908     3     3     1     4
 0.0035187580     3     3     1     6
 0.0313470743     3     3     2     1
 0.5290169918     3     3     2     2
 -0.0012926405     3     3     2     4
 0.0442205712     3     3     2     6
 -0.0105988908     3     3     4     1
 -0.0012926405     3     3     4     2
 0.5621875194     3     3     4     4
 0.0234684497     3     3     4     6
 0.5836292136     3     3     5     5
 0.0035187580     3     3     6     1
 0.0442205712     3     3     6     2
 0.0234684497     3     3     6     4
 0.2581101696     3     3     6     6
 0.0105988908     3     4     1     3
 0.0012926405     3     4     2     3
 -0.5621875194     3     4     4     3
 -0.0234684497     3     4     6     3
 -0.5836292136     3     5     5     3
 -0.0035187580     3     6     1     3
 -0.0442205712     3     6     2     3
 -0.0234684497     3     6     4     3
 -0.2581101696     3     6     6     3
 0.0657679367     4     1     1     2
 -0.9473220340     4     1     1     4
 -0.0482799622     4     1     1     6
 -0.0071098613     4     1     2     2
 -0.0359425977     4     1     2     4
 -0.0046899708     4     1     2     6
 -0.0105988908     4     1     3     3
 -0.0134971053     4     1     5     5
 -0.0001377571     4     1     6     2
 -0.0066956778     4     1     6     4
 -0.0025607504     4     1     6     6
 -0.0657679367     4     2     1     1
 -0.0359425977     4     2     1     4
 -0.0050949932     4     2     1     6
 0.0071098613     4     2     2     1
 -0.5497068677     4     2     2     4
 -0.0203045105     4     2     2     6
 -0.0012926405     4     2     3     3
 -0.0034214747     4     2     5     5
 0.0001377571     4     2     6     1
 -0.0438413009     4     2     6     4
 0.0102742126     4     2     6     6
 0.0105988908     4     3     3     1
 0.0012926405     4     3     3     2
 -0.5621875194     4     3     3     4
 -0.0234684497     4     3     3     6
 0.9473220340     4     4     1     1
 0.0359425977     4     4     1     2
 0.0066956778     4     4     1     6
 0.0359425977     4     4     2     1
 0.5497068677     4     4     2     2
 0.0438413009     4     4     2     6
 0.5621875194     4     4     3     3
 0.6007834267     4     4     5     5
 0.0066956778     4     4     6     1
 0.0438413009     4     4     6     2
 0.2470955394     4     4     6     6
 0.0134971053     4     5     5     1
 0.0034214747     4     5     5     2
 -0.6007834267     4     5     5     4
 -0.0270427838     4     5     5     6
 0.0482799622     4     6     1     1
 0.0050949932     4     6     1     2
 -0.0066956778     4     6     1     4
 0.0046899708     4     6     2     1
 0.0203045105     4     6     2     2
 -0.0438413009     4     6     2     4
 0.0234684497     4     6     3     3
 0.0270427838     4     6     5     5
 0.0025607504     4     6     6     1
 -0.0102742126     4     6     6     2
 -0.2470955394     4     6     6     4
 -0.9893480002     5     1     1     5
 -0.0404620946     5     1     2     5
 0.0134971053     5     1     4     5
 -0.0062088493     5     1     6     5
 -0.0404620946     5     2     1     5
 -0.5748389954     5     2     2     5
 0.0034214747     5     2     4     5
 -0.0440713478     5     2     6     5
 -0.5836292136     5     3     3     5
 0.0134971053     5     4     1     5
 0.0034214747     5     4     2     5
 -0.6007834267     5     4     4     5
 -0.0270427838     5     4     6     5
 0.9893480002     5     5     1     1
 0.0404620946     5     5     1     2
 -0.0134971053     5     5     1     4
 0.0062088493     5     5     1     6
 0.0404620946     5     5     2     1
 0.5748389954     5     5     2     2
 -0.0034214747     5     5     2     4
 0.0440713478     5     5     2     6
 0.5836292136     5     5     3     3
 -0.0134971053     5     5     4     1
 -0.0034214747     5     5     4     2
 0.6007834267     5     5     4     4
 0.0270427838     5     5     4     6
 0.0062088493     5     5     6     1
 0.0440713478     5     5     6     2
 0.0270427838     5     5     6     4
 0.2531830777     5     5     6     6
 -0.0062088493     5     6     1     5
 -0.0440713478     5     6     2     5
 -0.0270427838     5     6     4     5
 -0.2531830777     5     6     6     5
 -0.0944463355     6     1     1     2
 -0.0482799622     6     1     1     4
 -0.2800085806     6     1     1     6
 -0.0008096908     6     1     2     2
 -0.0050949932     6     1     2     4
 -0.0010265607     6     1     2     6
 0.0035187580     6     1     3     3
 0.0001377571     6     1     4     2
 0.0066956778     6     1     4     4
 0.0025607504     6     1     4     6
 0.0062088493     6     1     5     5
 0.0944463355     6     2     1     1
 -0.0046899708     6     2     1     4
 -0.0010265607     6     2     1     6
 0.0008096908     6     2     2     1
 -0.0203045105     6     2     2     4
 -0.2560389708     6     2     2     6
 0.0442205712     6     2     3     3
 -0.0001377571     6     2     4     1
 0.0438413009     6     2     4     4
 -0.0102742126     6     2     4     6
 0.0440713478     6     2     5     5
 -0.0035187580     6     3     3     1
 -0.0442205712     6     3     3     2
 -0.0234684497     6     3     3     4
 -0.2581101696     6     3     3     6
 0.0482799622     6     4     1     1
 0.0046899708     6     4     1     2
 0.0025607504     6     4     1     6
 0.0050949932     6     4     2     1
 0.0203045105     6     4     2     2
 -0.0102742126     6     4     2     6
 0.0234684497     6     4     3     3
 -0.0066956778     6     4     4     1
 -0.0438413009     6     4     4     2
 -0.2470955394     6     4     4     6
 0.0270427838     6     4     5     5
 -0.0062088493     6     5     5     1
 -0.0440713478     6     5     5     2
 -0.0270427838     6     5     5     4
 -0.2531830777     6     5     5     6
 0.2800085806     6     6     1     1
 0.0010265607     6     6     1     2
 -0.0025607504     6     6     1     4
 0.0010265607     6     6     2     1
 0.2560389708     6     6     2     2
 0.0102742126     6     6     2     4
 0.2581101696     6     6     3     3
 -0.0025607504     6     6     4     1
 0.0102742126     6     6     4     2
 0.2470955394     6     6     4     4
 0.2531830777     6     6     5     5
0.0 0 0 0 0
 4.7140380983     1     1     1     1
 0.4273966233     1     1     1     2
 -0.1350911617     1     1     1     4
 0.0918112320     1     1     1     6
 0.4273966233     1     1     2     1
 1.0480748021     1     1     2     2
 -0.0816312546     1     1     2     4
 0.1102210243     1     1     2     6
 0.8934359927     1     1     3     3
 -0.1350911617     1     1     4     1
 -0.0816312546     1     1     4     2
 0.9780662935     1     1     4     4
 0.0489605369     1     1     4     6
 1.0197410342     1     1     5     5
 0.0918112320     1     1     6     1
 0.1102210243     1     1     6     2
 0.0489605369     1     1     6     4
 0.2840224272     1     1     6     6
 0.4273966233     1     2     1     1
 0.0593804424     1     2     1     2
 -0.0159354391     1     2     1     4
 0.0148793209     1     2     1     6
 0.0633618894     1     2     2     1
 0.0146957703     1     2     2     2
 -0.0074000189     1     2     2     4
 0.0016488031     1     2     2     6
 0.0075891737     1     2     3     3
 -0.0158633179     1     2     4     1
 -0.0076739948     1     2     4     2
 0.0134276046     1     2     4     4
 -0.0006841924     1     2     4     6
 0.0121310568     1     2     5     5
 0.0157746888     1     2     6     1
 0.0007391156     1     2     6     2
 -0.0008722104     1     2     6     4
 0.0006092086     1     2     6     6
 0.0165276109     1     3     1     3
 -0.0228943952     1     3     2     3
 0.0212708662     1     3     3     1
 -0.0237579006     1     3     3     2
 0.0030549261     1     3     3     4
 -0.0031408858     1     3     3     6
 0.0026324753     1     3     4     3
 -0.0029916247     1     3     6     3
 -0.1350911617     1     4     1     1
 -0.0159354391     1     4     1     2
 0.0256399061     1     4     1     4
 0.0003745554     1     4     1     6
 -0.0158633179     1     4     2     1
 -0.0145098802     1     4     2     2
 -0.0218141732     1     4     2     4
 -0.0056991648     1     4     2     6
 -0.0075439647     1     4     3     3
 0.0307442595     1     4     4     1
 -0.0225149931     1     4     4     2
 0.0079543952     1     4     4     4
 -0.0022845489     1     4     4     6
 -0.0047749781     1     4     5     5
 0.0006805747     1     4     6     1
 -0.0055621812     1     4     6     2
 -0.0019349097     1     4     6     4
 -0.0030661972     1     4     6     6
 0.0249083415     1     5     1     5
 -0.0280087183     1     5     2     5
 0.0084048055     1     5     4     5
 0.0303930340     1     5     5     1
 -0.0283310378     1     5     5     2
 0.0087221272     1     5     5     4
 -0.0045596026     1     5     5     6
 -0.0040413113     1     5     6     5
 0.0918112320     1     6     1     1
 0.0148793209     1     6     1     2
 0.0003745554     1     6     1     4
 0.0044165925     1     6     1     6
 0.0157746888     1     6     2     1
 0.0008391123     1     6     2     2
 -0.0055614077     1     6     2     4
 -0.0007144286     1     6     2     6
 0.0003778722     1     6     3     3
 0.0006805747     1     6     4     1
 -0.0057791856     1     6     4     2
 0.0044111289     1     6     4     4
 -0.0008208384     1     6     4     6
 0.0016492467     1     6     5     5
 0.0040138466     1     6     6     1
 -0.0004173521     1     6     6     2
 -0.0005054468     1     6     6     4
 -0.0003138038     1     6     6     6
 0.4273966233     2     1     1     1
 0.0633618894     2     1     1     2
 -0.0158633179     2     1     1     4
 0.0157746888     2     1     1     6
 0.0593804424     2     1     2     1
 0.0146957703     2     1     2     2
 -0.0076739948     2     1     2     4
 0.0007391156     2     1     2     6
 0.0075891737     2     1     3     3
 -0.0159354391     2     1     4     1
 -0.0074000189     2     1     4     2
 0.0134276046     2     1     4     4
 -0.0008722104     2     1     4     6
 0.0121310568     2     1     5     5
 0.0148793209     2     1     6     1
 0.0016488031     2     1     6     2
 -0.0006841924     2     1     6     4
 0.0006092086     2     1     6     6
 1.0480748021     2     2     1     1
 0.0146957703     2     2     1     2
 -0.0145098802     2     2     1     4
 0.0008391123     2     2     1     6
 0.0146957703     2     2     2     1
 0.7435027270     2     2     2     2
 0.0176425825     2     2     2     4
 0.0650362711     2     2     2     6
 0.6746708447     2     2     3     3
 -0.0145098802     2     2     4     1
 0.0176425825     2     2     4     2
 0.6665291666     2     2     4     4
 0.0326269179     2     2     4     6
 0.6933802909     2     2     5     5
 0.0008391123     2     2     6     1
 0.0650362711     2     2     6     2
 0.0326269179     2     2     6     4
 0.2696033120     2     2     6     6
 -0.0228943952     2     3     1     3
 0.1403122242     2     3     2     3
 -0.0237579006     2     3     3     1
 0.1456538529     2     3     3     2
 0.0132967720     2     3     3     4
 0.0046562683     2     3     3     6
 0.0138601762     2     3     4     3
 0.0047017884     2     3     6     3
 -0.0816312546     2     4     1     1
 -0.0074000189     2     4     1     2
 -0.0218141732     2     4     1     4
 -0.0055614077     2     4     1     6
 -0.0076739948     2     4     2     1
 0.0176425825     2     4     2     2
 0.1116755191     2     4     2     4
 0.0119317935     2     4     2     6
 0.0120041315     2     4     3     3
 -0.0225149931     2     4     4     1
 0.1168222989     2     4     4     2
 -0.0611656373     2     4     4     4
 0.0004026855     2     4     4     6
 -0.0300166652     2     4     5     5
 -0.0057791856     2     4     6     1
 0.0123224074     2     4     6     2
 0.0008108411     2     4     6     4
 0.0176075589     2     4     6     6
 -0.0280087183     2     5     1     5
 0.1142815069     2     5     2     5
 -0.0268311102     2     5     4     5
 -0.0283310378     2     5     5     1
 0.1185412955     2     5     5     2
 -0.0265951905     2     5     5     4
 0.0118943253     2     5     5     6
 0.0116076485     2     5     6     5
 0.1102210243     2     6     1     1
 0.0016488031     2     6     1     2
 -0.0056991648     2     6     1     4
 -0.0007144286     2     6     1     6
 0.0007391156     2     6     2     1
 0.0650362711     2     6     2     2
 0.0119317935     2     6     2     4
 0.0179178612     2     6     2     6
 0.0488768395     2     6     3     3
 -0.0055621812     2     6     4     1
 0.0123224074     2     6     4     2
 0.0442439864     2     6     4     4
 0.0102291567     2     6     4     6
 0.0559656731     2     6     5     5
 -0.0004173521     2     6     6     1
 0.0135643412     2     6     6     2
 0.0073333463     2     6     6     4
 0.0048196615     2     6     6     6
 0.0212708662     3     1     1     3
 -0.0237579006     3     1     2     3
 0.0165276109     3     1     3     1
 -0.0228943952     3     1     3     2
 0.0026324753     3     1     3     4
 -0.0029916247     3     1     3     6
 0.0030549261     3     1     4     3
 -0.0031408858     3     1     6     3
 -0.0237579006     3     2     1     3
 0.1456538529     3     2     2     3
 -0.0228943952     3     2     3     1
 0.1403122242     3     2     3     2
 0.0138601762     3     2     3     4
 0.0047017884     3     2     3     6
 0.0132967720     3     2     4     3
 0.0046562683     3     2     6     3
 0.8934359927     3     3     1     1
 0.0075891737     3     3     1     2
 -0.0075439647     3     3     1     4
 0.0003778722     3     3     1     6
 0.0075891737     3     3     2     1
 0.6746708447     3     3     2     2
 0.0120041315     3     3     2     4
 0.0488768395     3     3     2     6
 0.6496759923     3     3     3     3
 -0.0075439647     3     3     4     1
 0.0120041315     3     3     4     2
 0.5976185761     3     3     4     4
 0.0228499066     3     3     4     6
 0.6107282245     3     3     5     5
 0.0003778722     3     3     6     1
 0.0488768395     3     3     6     2
 0.0228499066     3     3     6     4
 0.2660135863     3     3     6     6
 0.0030549261     3     4     1     3
 0.0132967720     3     4     2     3
 0.0026324753     3     4     3     1
 0.0138601762     3     4     3     2
 0.0285804532     3     4     3     4
 -0.0008970441     3     4     3     6
 0.0354310567     3     4     4     3
 -0.0006185431     3     4     6     3
 0.0206696001     3     5     3     5
 0.0270990109     3     5     5     3
 -0.0031408858     3     6     1     3
 0.0046562683     3     6     2     3
 -0.0029916247     3     6     3     1
 0.0047017884     3     6     3     2
 -0.0008970441     3     6     3     4