&FCI NORB= 15,NELEC= 10,MS2=0,
 ORBSYM=1,1,1,1,1,1,1,1,1,1,1,1,1,1,1
 ISYM=1,
&END
 0.9846230409     1     1     2     2
 -0.0676455530     1     1     2     4
 -0.1284723008     1     1     2     6
 -0.0351615354     1     1     2     9
 0.1107027157     1     1     2    10
 0.0744442297     1     1     2    12
 0.8702118831     1     1     3     3
 -0.1492200577     1     1     3     7
 -0.0790630225     1     1     3     8
 -0.2337972041     1     1     3    13
 -0.0676455530     1     1     4     2
 0.9524229531     1     1     4     4
 -0.0687214671     1     1     4     6
 0.1670143635     1     1     4     9
 0.1632494628     1     1     4    10
 0.0521451176     1     1     4    12
 1.0009157256     1     1     5     5
 0.2950992152     1     1     5    11
 -0.0421070551     1     1     5    15
 -0.1284723008     1     1     6     2
 -0.0687214671     1     1     6     4
 0.3152192771     1     1     6     6
 -0.0074403184     1     1     6     9
 -0.1150685647     1     1     6    10
 -0.0618706309     1     1     6    12
 -0.1492200577     1     1     7     3
 0.2836071726     1     1     7     7
 0.0650419767     1     1     7     8
 0.1473415447     1     1     7    13
 -0.0790630225     1     1     8     3
 0.0650419767     1     1     8     7
 0.3887817703     1     1     8     8
 0.0792819966     1     1     8    13
 -0.0351615354     1     1     9     2
 0.1670143635     1     1     9     4
 -0.0074403184     1     1     9     6
 0.3820780555     1     1     9     9
 0.0348772081     1     1     9    10
 0.0247142837     1     1     9    12
 0.1107027157     1     1    10     2
 0.1632494628     1     1    10     4
 -0.1150685647     1     1    10     6
 0.0348772081     1     1    10     9
 0.4564732266     1     1    10    10
 0.0437087110     1     1    10    12
 0.2950992152     1     1    11     5
 0.5389665234     1     1    11    11
 -0.0393996963     1     1    11    15
 0.0744442297     1     1    12     2
 0.0521451176     1     1    12     4
 -0.0618706309     1     1    12     6
 0.0247142837     1     1    12     9
 0.0437087110     1     1    12    10
 0.3780163668     1     1    12    12
 -0.2337972041     1     1    13     3
 0.1473415447     1     1    13     7
 0.0792819966     1     1    13     8
 0.4773994550     1     1    13    13
 0.3617745702     1     1    14    14
 -0.0421070551     1     1    15     5
 -0.0393996963     1     1    15    11
 0.3652464669     1     1    15    15
 -0.9846230409     1     2     2     1
 0.0069576349     1     2     2     4
 -0.0013267465     1     2     2     6
 0.0030091162     1     2     2     9
 0.0036401643     1     2     2    10
 0.0015772566     1     2     2    12
 0.0308708110     1     2     3     3
 -0.0109137447     1     2     3     7
 -0.0087632752     1     2     3     8
 -0.0212356474     1     2     3    13
 0.0676455530     1     2     4     1
 0.0359036555     1     2     4     4
 -0.0063981123     1     2     4     6
 0.0118274658     1     2     4     9
 0.0150989778     1     2     4    10
 0.0065437277     1     2     4    12
 0.0409738277     1     2     5     5
 0.0243289003     1     2     5    11
 -0.0045112491     1     2     5    15
 0.1284723008     1     2     6     1
 -0.0062424347     1     2     6     4
 0.0013692284     1     2     6     6
 -0.0022061418     1     2     6     9
 -0.0032789210     1     2     6    10
 -0.0014187612     1     2     6    12
 -0.0081987646     1     2     7     3
 0.0034529648     1     2     7     7
 0.0027073600     1     2     7     8
 0.0069523085     1     2     7    13
 -0.0059185676     1     2     8     3
 0.0023832198     1     2     8     7
 0.0019956505     1     2     8     8
 0.0044144187     1     2     8    13
 0.0351615354     1     2     9     1
 0.0088003461     1     2     9     4
 -0.0015096076     1     2     9     6
 0.0040072918     1     2     9     9
 0.0047189644     1     2     9    10
 0.0014872492     1     2     9    12
 -0.1107027157     1     2    10     1
 0.0125226657     1     2    10     4
 -0.0026941935     1     2    10     6
 0.0053731055     1     2    10     9
 0.0064593365     1     2    10    10
 0.0025977151     1     2    10    12
 0.0180786679     1     2    11     5
 0.0137541011     1     2    11    11
 -0.0020865872     1     2    11    15
 -0.0744442297     1     2    12     1
 0.0050326931     1     2    12     4
 -0.0010574580     1     2    12     6
 0.0015967404     1     2    12     9
 0.0023584740     1     2    12    10
 0.0008665017     1     2    12    12
 -0.0145046228     1     2    13     3
 0.0063457858     1     2    13     7
 0.0045813435     1     2    13     8
 0.0122957831     1     2    13    13
 -0.0002878675     1     2    14    14
 -0.0027625948     1     2    15     5
 -0.0016207121     1     2    15    11
 0.0001823846     1     2    15    15
 -0.0020757031     1     3     2     7
 -0.0023998450     1     3     2     8
 -0.0055935461     1     3     2    13
 -0.8702118831     1     3     3     1
 -0.0308708110     1     3     3     2
 0.0105091760     1     3     3     4
 0.0041380677     1     3     3     6
 0.0027889007     1     3     3     9
 0.0006766014     1     3     3    10
 -0.0042767855     1     3     3    12
 -0.0010366179     1     3     4     7
 -0.0040990630     1     3     4     8
 -0.0014179417     1     3     4    13
 -0.0033664483     1     3     5    14
 -0.0018532416     1     3     6     7
 0.0004270842     1     3     6     8
 -0.0016701264     1     3     6    13
 0.1492200577     1     3     7     1
 0.0081987646     1     3     7     2
 -0.0028829781     1     3     7     4
 -0.0036639040     1     3     7     6
 -0.0012802799     1     3     7     9
 0.0019571215     1     3     7    10
 0.0011855819     1     3     7    12
 0.0790630225     1     3     8     1
 0.0059185676     1     3     8     2
 -0.0018880340     1     3     8     4
 -0.0017773786     1     3     8     6
 0.0010322109     1     3     8     9
 0.0040753838     1     3     8    10
 0.0027231368     1     3     8    12
 -0.0009145425     1     3     9     7
 0.0000427506     1     3     9     8
 -0.0028764497     1     3     9    13
 0.0014365195     1     3    10     7
 0.0018427019     1     3    10     8
 0.0032862700     1     3    10    13
 0.0008707058     1     3    11    14
 -0.0006648905     1     3    12     7
 0.0005969953     1     3    12     8
 -0.0004797859     1     3    12    13
 0.2337972041     1     3    13     1
 0.0145046228     1     3    13     2
 -0.0050073005     1     3    13     4
 -0.0052465447     1     3    13     6
 -0.0036031651     1     3    13     9
 0.0043827320     1     3    13    10
 0.0031414280     1     3    13    12
 0.0003860227     1     3    14     5
 0.0032452947     1     3    14    11
 -0.0026770332     1     3    14    15
 -0.0022928919     1     3    15    14
 0.0676455530     1     4     2     1
 -0.0069576349     1     4     2     2
 0.0003216157     1     4     2     6
 0.0023266577     1     4     2     9
 0.0016132242     1     4     2    10
 0.0011293101     1     4     2    12
 -0.0105091760     1     4     3     3
 0.0020041761     1     4     3     7
 -0.0021505225     1     4     3     8
 0.0039136796     1     4     3    13
 -0.9524229531     1     4     4     1
 -0.0359036555     1     4     4     2
 0.0082534599     1     4     4     6
 0.0006264845     1     4     4     9
 -0.0102834642     1     4     4    10
 -0.0020942050     1     4     4    12
 -0.0136872915     1     4     5     5
 -0.0078306500     1     4     5    11
 -0.0022380263     1     4     5    15
 0.0687214671     1     4     6     1
 0.0062424347     1     4     6     2
 -0.0033148277     1     4     6     6
 0.0014233338     1     4     6     9
 0.0036010262     1     4     6    10
 0.0014698948     1     4     6    12
 0.0028829781     1     4     7     3
 -0.0021184913     1     4     7     7
 -0.0009662412     1     4     7     8
 -0.0024613607     1     4     7    13
 0.0018880340     1     4     8     3
 -0.0021963795     1     4     8     7
 -0.0012974872     1     4     8     8
 -0.0053384117     1     4     8    13
 -0.1670143635     1     4     9     1
 -0.0088003461     1     4     9     2
 0.0042729965     1     4     9     6
 0.0010173083     1     4     9     9
 -0.0019262739     1     4     9    10
 -0.0032453656     1     4     9    12
 -0.1632494628     1     4    10     1
 -0.0125226657     1     4    10     2
 0.0052582804     1     4    10     6
 0.0017686109     1     4    10     9
 -0.0068624789     1     4    10    10
 -0.0031031821     1     4    10    12
 -0.0063496219     1     4    11     5
 -0.0045548016     1     4    11    11
 0.0016151689     1     4    11    15
 -0.0521451176     1     4    12     1
 -0.0050326931     1     4    12     2
 0.0026521081     1     4    12     6
 -0.0025104939     1     4    12     9
 -0.0041759677     1     4    12    10
 -0.0032329148     1     4    12    12
 0.0050073005     1     4    13     3
 -0.0022545402     1     4    13     7
 -0.0028108913     1     4    13     8
 -0.0041980117     1     4    13    13
 -0.0024112780     1     4    14    14
 0.0012791401     1     4    15     5
 0.0039736051     1     4    15    11
 -0.0018915345     1     4    15    15
 0.0048372932     1     5     2    11
 -0.0015222183     1     5     2    15
 -0.0037964202     1     5     3    14
 -0.0010820181     1     5     4    11
 -0.0035619979     1     5     4    15
 -1.0009157256     1     5     5     1
 -0.0409738277     1     5     5     2
 0.0136872915     1     5     5     4
 0.0078809493     1     5     5     6
 0.0075503960     1     5     5     9
 -0.0081882771     1     5     5    10
 -0.0061831994     1     5     5    12
 0.0021615454     1     5     6    11
 0.0000314374     1     5     6    15
 -0.0004236687     1     5     7    14
 0.0003905171     1     5     8    14
 -0.0014337245     1     5     9    11
 0.0001363312     1     5     9    15
 0.0012051507     1     5    10    11
 0.0003713242     1     5    10    15
 -0.2950992152     1     5    11     1
 -0.0180786679     1     5    11     2
 0.0063496219     1     5    11     4
 0.0070346774     1     5    11     6
 0.0030037580     1     5    11     9
 -0.0040316583     1     5    11    10
 -0.0033451393     1     5    11    12
 0.0005136935     1     5    12    11
 -0.0004687287     1     5    12    15
 0.0000220566     1     5    13    14
 -0.0003860227     1     5    14     3
 -0.0016511812     1     5    14     7
 -0.0005046463     1     5    14     8
 -0.0023362745     1     5    14    13
 0.0421070551     1     5    15     1
 0.0027625948     1     5    15     2
 -0.0012791401     1     5    15     4
 -0.0015485860     1     5    15     6
 0.0006437373     1     5    15     9
 0.0029239077     1     5    15    10
 0.0008491938     1     5    15    12
 0.1284723008     1     6     2     1
 0.0013267465     1     6     2     2
 -0.0003216157     1     6     2     4
 -0.0007004105     1     6     2     9
 -0.0006095892     1     6     2    10
 -0.0003789233     1     6     2    12
 -0.0041380677     1     6     3     3
 0.0017972979     1     6     3     7
 0.0022190802     1     6     3     8
 0.0035962331     1     6     3    13
 0.0687214671     1     6     4     1
 0.0063981123     1     6     4     2
 -0.0082534599     1     6     4     4
 -0.0028739978     1     6     4     9
 -0.0017018402     1     6     4    10
 -0.0011980956     1     6     4    12
 -0.0078809493     1     6     5     5
 -0.0048304612     1     6     5    11
 0.0015795035     1     6     5    15
 -0.3152192771     1     6     6     1
 -0.0013692284     1     6     6     2
 0.0033148277     1     6     6     4
 0.0008488076     1     6     6     9
 0.0008158135     1     6     6    10
 0.0003317946     1     6     6    12
 0.0036639040     1     6     7     3
 -0.0011677235     1     6     7     7
 -0.0009998940     1     6     7     8
 -0.0026044024     1     6     7    13
 0.0017773786     1     6     8     3
 -0.0003733427     1     6     8     7
 -0.0003406565     1     6     8     8
 -0.0004856437     1     6     8    13
 0.0074403184     1     6     9     1
 0.0015096076     1     6     9     2
 -0.0042729965     1     6     9     4
 -0.0017725566     1     6     9     9
 -0.0016946664     1     6     9    10
 -0.0001285897     1     6     9    12
 0.1150685647     1     6    10     1
 0.0026941935     1     6    10     2
 -0.0052582804     1     6    10     4
 -0.0022928046     1     6    10     9
 -0.0010787123     1     6    10    10
 -0.0003737077     1     6    10    12
 -0.0070346774     1     6    11     5
 -0.0045746148     1     6    11    11
 0.0005513978     1     6    11    15
 0.0618706309     1     6    12     1
 0.0010574580     1     6    12     2
 -0.0026521081     1     6    12     4
 -0.0003869177     1     6    12     9
 -0.0003814647     1     6    12    10
 0.0002003919     1     6    12    12
 0.0052465447     1     6    13     3
 -0.0019570014     1     6    13     7
 -0.0012217740     1     6    13     8
 -0.0038185380     1     6    13    13
 0.0005443998     1     6    14    14
 0.0015485860     1     6    15     5
 0.0003199994     1     6    15    11
 0.0002351792     1     6    15    15
 0.0020757031     1     7     2     3
 0.0003224644     1     7     2     8
 0.0005759440     1     7     2    13
 0.1492200577     1     7     3     1
 0.0109137447     1     7     3     2
 -0.0020041761     1     7     3     4
 -0.0017972979     1     7     3     6
 -0.0003777854     1     7     3     9
 0.0004745008     1     7     3    10
 0.0018353701     1     7     3    12
 0.0010366179     1     7     4     3
 0.0012411425     1     7     4     8
 -0.0001912588     1     7     4    13
 0.0012506391     1     7     5    14
 0.0018532416     1     7     6     3
 -0.0006255733     1     7     6     8
 -0.0006439176     1     7     6    13
 -0.2836071726     1     7     7     1
 -0.0034529648     1     7     7     2
 0.0021184913     1     7     7     4
 0.0011677235     1     7     7     6
 0.0008018453     1     7     7     9
 -0.0003358836     1     7     7    10
 -0.0002929277     1     7     7    12
 -0.0650419767     1     7     8     1
 -0.0023832198     1     7     8     2
 0.0021963795     1     7     8     4
 0.0003733427     1     7     8     6
 0.0001349747     1     7     8     9
 -0.0008185576     1     7     8    10
 -0.0007308527     1     7     8    12
 0.0009145425     1     7     9     3
 -0.0002580576     1     7     9     8
 0.0003959515     1     7     9    13
 -0.0014365195     1     7    10     3
 -0.0002851594     1     7    10     8
 -0.0001902124     1     7    10    13
 -0.0003113746     1     7    11    14
 0.0006648905     1     7    12     3
 -0.0003847593     1     7    12     8
 -0.0002751890     1     7    12    13
 -0.1473415447     1     7    13     1
 -0.0063457858     1     7    13     2
 0.0022545402     1     7    13     4
 0.0019570014     1     7    13     6
 0.0014062174     1     7    13     9
 -0.0015879327     1     7    13    10
 -0.0011655032     1     7    13    12
 0.0016511812     1     7    14     5
 -0.0000594237     1     7    14    11
 0.0007723918     1     7    14    15
 0.0008104843     1     7    15    14
 0.0023998450     1     8     2     3
 -0.0003224644     1     8     2     7
 -0.0001864333     1     8     2    13
 0.0790630225     1     8     3     1
 0.0087632752     1     8     3     2
 0.0021505225     1     8     3     4
 -0.0022190802     1     8     3     6
 0.0009764316     1     8     3     9
 0.0022491583     1     8     3    10
 0.0021256453     1     8     3    12
 0.0040990630     1     8     4     3
 -0.0012411425     1     8     4     7
 -0.0025308342     1     8     4    13
 0.0008951347     1     8     5    14
 -0.0004270842     1     8     6     3
 0.0006255733     1     8     6     7
 0.0007388652     1     8     6    13
 -0.0650419767     1     8     7     1
 -0.0027073600     1     8     7     2
 0.0009662412     1     8     7     4
 0.0009998940     1     8     7     6
 0.0003912255     1     8     7     9
 -0.0005367675     1     8     7    10
 -0.0003482198     1     8     7    12
 -0.3887817703     1     8     8     1
 -0.0019956505     1     8     8     2
 0.0012974872     1     8     8     4
 0.0003406565     1     8     8     6
 -0.0000256564     1     8     8     9
 -0.0007759611     1     8     8    10
 -0.0005884274     1     8     8    12
 -0.0000427506     1     8     9     3
 0.0002580576     1     8     9     7
 0.0007805977     1     8     9    13
 -0.0018427019     1     8    10     3
 0.0002851594     1     8    10     7
 0.0003979824     1     8    10    13
 -0.0002063810     1     8    11    14
 -0.0005969953     1     8    12     3
 0.0003847593     1     8    12     7
 0.0005180953     1     8    12    13
 -0.0792819966     1     8    13     1
 -0.0045813435     1     8    13     2
 0.0028108913     1     8    13     4
 0.0012217740     1     8    13     6
 0.0014287874     1     8    13     9
 -0.0006448773     1     8    13    10
 -0.0006669600     1     8    13    12
 0.0005046463     1     8    14     5
 -0.0004640837     1     8    14    11
 0.0006204045     1     8    14    15
 0.0005812509     1     8    15    14
 0.0351615354     1     9     2     1
 -0.0030091162     1     9     2     2
 -0.0023266577     1     9     2     4
 0.0007004105     1     9     2     6
 -0.0006753853     1     9     2    10
 -0.0001311803     1     9     2    12
 -0.0027889007     1     9     3     3
 0.0003777854     1     9     3     7
 -0.0009764316     1     9     3     8
 0.0007950843     1     9     3    13
 -0.1670143635     1     9     4     1
 -0.0118274658     1     9     4     2
 -0.0006264845     1     9     4     4
 0.0028739978     1     9     4     6
 -0.0037206423     1     9     4    10
 -0.0007439801     1     9     4    12
 -0.0075503960     1     9     5     5
 -0.0044978898     1     9     5    11
 -0.0005269108     1     9     5    15
 0.0074403184     1     9     6     1
 0.0022061418     1     9     6     2
 -0.0014233338     1     9     6     4
 -0.0008488076     1     9     6     6
 0.0006005425     1     9     6    10
 0.0002586672     1     9     6    12
 0.0012802799     1     9     7     3
 -0.0008018453     1     9     7     7
 -0.0003912255     1     9     7     8
 -0.0010085088     1     9     7    13
 -0.0010322109     1     9     8     3
 -0.0001349747     1     9     8     7
 0.0000256564     1     9     8     8
 -0.0006440975     1     9     8    13
 -0.3820780555     1     9     9     1
 -0.0040072918     1     9     9     2
 -0.0010173083     1     9     9     4
 0.0017725566     1     9     9     6
 -0.0012859407     1     9     9    10
 -0.0013817626     1     9     9    12
 -0.0348772081     1     9    10     1
 -0.0053731055     1     9    10     2
 -0.0017686109     1     9    10     4
 0.0022928046     1     9    10     6
 -0.0033054288     1     9    10    10
 -0.0014783075     1     9    10    12
 -0.0030037580     1     9    11     5
 -0.0019885548     1     9    11    11
 0.0006354311     1     9    11    15
 -0.0247142837     1     9    12     1
 -0.0015967404     1     9    12     2
 0.0025104939     1     9    12     4
 0.0003869177     1     9    12     6
 -0.0002830581     1     9    12    10
 -0.0006249134     1     9    12    12
 0.0036031651     1     9    13     3
 -0.0014062174     1     9    13     7
 -0.0014287874     1     9    13     8
 -0.0026561230     1     9    13    13
 -0.0008009015     1     9    14    14
 -0.0006437373     1     9    15     5
 0.0006809241     1     9    15    11
 -0.0005158753     1     9    15    15
 -0.1107027157     1    10     2     1
 -0.0036401643     1    10     2     2
 -0.0016132242     1    10     2     4
 0.0006095892     1    10     2     6
 0.0006753853     1    10     2     9
 0.0002354958     1    10     2    12
 -0.0006766014     1    10     3     3
 -0.0004745008     1    10     3     7
 -0.0022491583     1    10     3     8
 -0.0010497357     1    10     3    13
 -0.1632494628     1    10     4     1
 -0.0150989778     1    10     4     2
 0.0102834642     1    10     4     4
 0.0017018402     1    10     4     6
 0.0037206423     1    10     4     9
 0.0010637468     1    10     4    12
 0.0081882771     1    10     5     5
 0.0051543845     1    10     5    11
 -0.0025622764     1    10     5    15
 0.1150685647     1    10     6     1
 0.0032789210     1    10     6     2
 -0.0036010262     1    10     6     4
 -0.0008158135     1    10     6     6
 -0.0006005425     1    10     6     9
 0.0000075973     1    10     6    12
 -0.0019571215     1    10     7     3
 0.0003358836     1    10     7     7
 0.0005367675     1    10     7     8
 0.0013971485     1    10     7    13
 -0.0040753838     1    10     8     3
 0.0008185576     1    10     8     7
 0.0007759611     1    10     8     8
 0.0010426179     1    10     8    13
 -0.0348772081     1    10     9     1
 -0.0047189644     1    10     9     2
 0.0019262739     1    10     9     4
 0.0016946664     1    10     9     6
 0.0012859407     1    10     9     9
 -0.0011944693     1    10     9    12
 -0.4564732266     1    10    10     1
 -0.0064593365     1    10    10     2
 0.0068624789     1    10    10     4
 0.0010787123     1    10    10     6
 0.0033054288     1    10    10     9
 -0.0001662237     1    10    10    12
 0.0040316583     1    10    11     5
 0.0027193040     1    10    11    11
 -0.0000443218     1    10    11    15
 -0.0437087110     1    10    12     1
 -0.0023584740     1    10    12     2
 0.0041759677     1    10    12     4
 0.0003814647     1    10    12     6
 0.0002830581     1    10    12     9
 -0.0007295655     1    10    12    12
 -0.0043827320     1    10    13     3
 0.0015879327     1    10    13     7
 0.0006448773     1    10    13     8
 0.0031416685     1    10    13    13
 -0.0011384123     1    10    14    14
 -0.0029239077     1    10    15     5
 -0.0003764874     1    10    15    11
 -0.0005287661     1    10    15    15
 -0.0048372932     1    11     2     5
 -0.0004639595     1    11     2    15
 -0.0023481657     1    11     3    14
 0.0010820181     1    11     4     5
 -0.0023093839     1    11     4    15
 -0.2950992152     1    11     5     1
 -0.0243289003     1    11     5     2
 0.0078306500     1    11     5     4
 0.0048304612     1    11     5     6
 0.0044978898     1    11     5     9
 -0.0051543845     1    11     5    10
 -0.0038259855     1    11     5    12
 -0.0021615454     1    11     6     5
 0.0002340250     1    11     6    15
 -0.0002473948     1    11     7    14
 0.0002605542     1    11     8    14
 0.0014337245     1    11     9     5
 -0.0000464583     1    11     9    15
 -0.0012051507     1    11    10     5
 0.0003295759     1    11    10    15
 -0.5389665234     1    11    11     1
 -0.0137541011     1    11    11     2
 0.0045548016     1    11    11     4
 0.0045746148     1    11    11     6
 0.0019885548     1    11    11     9
 -0.0027193040     1    11    11    10
 -0.0022266586     1    11    11    12
 -0.0005136935     1    11    12     5
 -0.0002466106     1    11    12    15
 0.0000187800     1    11    13    14
 -0.0032452947     1    11    14     3
 0.0000594237     1    11    14     7
 0.0004640837     1    11    14     8
 0.0005963136     1    11    14    13
 0.0393996963     1    11    15     1
 0.0016207121     1    11    15     2
 -0.0039736051     1    11    15     4
 -0.0003199994     1    11    15     6
 -0.0006809241     1    11    15     9
 0.0003764874     1    11    15    10
 -0.0000353241     1    11    15    12
 -0.0744442297     1    12     2     1
 -0.0015772566     1    12     2     2
 -0.0011293101     1    12     2     4
 0.0003789233     1    12     2     6
 0.0001311803     1    12     2     9
 -0.0002354958     1    12     2    10
 0.0042767855     1    12     3     3
 -0.0018353701     1    12     3     7
 -0.0021256453     1    12     3     8
 -0.0036151383     1    12     3    13
 -0.0521451176     1    12     4     1
 -0.0065437277     1    12     4     2
 0.0020942050     1    12     4     4
 0.0011980956     1    12     4     6
 0.0007439801     1    12     4     9
 -0.0010637468     1    12     4    10
 0.0061831994     1    12     5     5
 0.0038259855     1    12     5    11
 -0.0013089769     1    12     5    15
 0.0618706309     1    12     6     1
 0.0014187612     1    12     6     2
 -0.0014698948     1    12     6     4
 -0.0003317946     1    12     6     6
 -0.0002586672     1    12     6     9
 -0.0000075973     1    12     6    10
 -0.0011855819     1    12     7     3
 0.0002929277     1    12     7     7
 0.0003482198     1    12     7     8
 0.0008955635     1    12     7    13
 -0.0027231368     1    12     8     3
 0.0007308527     1    12     8     7
 0.0005884274     1    12     8     8
 0.0011864916     1    12     8    13
 -0.0247142837     1    12     9     1
 -0.0014872492     1    12     9     2
 0.0032453656     1    12     9     4
 0.0001285897     1    12     9     6
 0.0013817626     1    12     9     9
 0.0011944693     1    12     9    10
 -0.0437087110     1    12    10     1
 -0.0025977151     1    12    10     2
 0.0031031821     1    12    10     4
 0.0003737077     1    12    10     6
 0.0014783075     1    12    10     9
 0.0001662237     1    12    10    10
 0.0033451393     1    12    11     5
 0.0022266586     1    12    11    11
 -0.0002101983     1    12    11    15
 -0.3780163668     1    12    12     1
 -0.0008665017     1    12    12     2
 0.0032329148     1    12    12     4
 -0.0002003919     1    12    12     6
 0.0006249134     1    12    12     9
 0.0007295655     1    12    12    10
 -0.0031414280     1    12    13     3
 0.0011655032     1    12    13     7
 0.0006669600     1    12    13     8
 0.0022922495     1    12    13    13
 -0.0004685293     1    12    14    14
 -0.0008491938     1    12    15     5
 0.0000353241     1    12    15    11
 -0.0002568220     1    12    15    15
 0.0055935461     1    13     2     3
 -0.0005759440     1    13     2     7
 0.0001864333     1    13     2     8
 0.2337972041     1    13     3     1
 0.0212356474     1    13     3     2
 -0.0039136796     1    13     3     4
 -0.0035962331     1    13     3     6
 -0.0007950843     1    13     3     9
 0.0010497357     1    13     3    10
 0.0036151383     1    13     3    12
 0.0014179417     1    13     4     3
 0.0001912588     1    13     4     7
 0.0025308342     1    13     4     8
 0.0023871247     1    13     5    14
 0.0016701264     1    13     6     3
 0.0006439176     1    13     6     7
 -0.0007388652     1    13     6     8
 -0.1473415447     1    13     7     1
 -0.0069523085     1    13     7     2
 0.0024613607     1    13     7     4
 0.0026044024     1    13     7     6
 0.0010085088     1    13     7     9
 -0.0013971485     1    13     7    10
 -0.0008955635     1    13     7    12
 -0.0792819966     1    13     8     1
 -0.0044144187     1    13     8     2
 0.0053384117     1    13     8     4
 0.0004856437     1    13     8     6
 0.0006440975     1    13     8     9
 -0.0010426179     1    13     8    10
 -0.0011864916     1    13     8    12
 0.0028764497     1    13     9     3
 -0.0003959515     1    13     9     7
 -0.0007805977     1    13     9     8
 -0.0032862700     1    13    10     3
 0.0001902124     1    13    10     7
 -0.0003979824     1    13    10     8
 -0.0005772899     1    13    11    14
 0.0004797859     1    13    12     3
 0.0002751890     1    13    12     7
 -0.0005180953     1    13    12     8
 -0.4773994550     1    13    13     1
 -0.0122957831     1    13    13     2
 0.0041980117     1    13    13     4
 0.0038185380     1    13    13     6
 0.0026561230     1    13    13     9
 -0.0031416685     1    13    13    10
 -0.0022922495     1    13    13    12
 0.0023362745     1    13    14     5
 -0.0005963136     1    13    14    11
 0.0015388863     1    13    14    15
 0.0015328247     1    13    15    14
 0.0037964202     1    14     3     5
 0.0023481657     1    14     3    11
 -0.0003878110     1    14     3    15
 0.0033664483     1    14     5     3
 -0.0012506391     1    14     5     7
 -0.0008951347     1    14     5     8
 -0.0023871247     1    14     5    13
 0.0004236687     1    14     7     5
 0.0002473948     1    14     7    11
 -0.0000379219     1    14     7    15
 -0.0003905171     1    14     8     5
 -0.0002605542     1    14     8    11
 0.0000391056     1    14     8    15
 -0.0008707058     1    14    11     3
 0.0003113746     1    14    11     7
 0.0002063810     1    14    11     8
 0.0005772899     1    14    11    13
 -0.0000220566     1    14    13     5
 -0.0000187800     1    14    13    11
 0.0000051701     1    14    13    15
 -0.3617745702     1    14    14     1
 0.0002878675     1    14    14     2
 0.0024112780     1    14    14     4
 -0.0005443998     1    14    14     6
 0.0008009015     1    14    14     9
 0.0011384123     1    14    14    10
 0.0004685293     1    14    14    12
 0.0022928919     1    14    15     3
 -0.0008104843     1    14    15     7
 -0.0005812509     1    14    15     8
 -0.0015328247     1    14    15    13
 0.0015222183     1    15     2     5
 0.0004639595     1    15     2    11
 0.0003878110     1    15     3    14
 0.0035619979     1    15     4     5
 0.0023093839     1    15     4    11
 0.0421070551     1    15     5     1
 0.0045112491     1    15     5     2
 0.0022380263     1    15     5     4
 -0.0015795035     1    15     5     6
 0.0005269108     1    15     5     9
 0.0025622764     1    15     5    10
 0.0013089769     1    15     5    12
 -0.0000314374     1    15     6     5
 -0.0002340250     1    15     6    11
 0.0000379219     1    15     7    14
 -0.0000391056     1    15     8    14
 -0.0001363312     1    15     9     5
 0.0000464583     1    15     9    11
 -0.0003713242     1    15    10     5
 -0.0003295759     1    15    10    11
 0.0393996963     1    15    11     1
 0.0020865872     1    15    11     2