&FCI NORB= 11,NELEC= 10,MS2=0,
 ORBSYM=1,1,1,1,1,1,1,1,1,1,1
 ISYM=1,
&END
 0.9845503702     1     1     2     2
 0.0663772699     1     1     2     4
 0.0855603195     1     1     2     6
 0.0518206973     1     1     2     8
 0.1017410492     1     1     2    11
 0.8724443124     1     1     3     3
 -0.0899323705     1     1     3     7
 -0.0445846368     1     1     3    10
 0.0663772699     1     1     4     2
 0.9494083124     1     1     4     4
 -0.0476724362     1     1     4     6
 0.0987399441     1     1     4     8
 -0.1338088118     1     1     4    11
 0.9939789591     1     1     5     5
 -0.1689326099     1     1     5     9
 0.0855603195     1     1     6     2
 -0.0476724362     1     1     6     4
 0.2481378999     1     1     6     6
 0.0195024834     1     1     6     8
 0.0963885914     1     1     6    11
 -0.0899323705     1     1     7     3
 0.2102656126     1     1     7     7
 0.0000000002     1     1     7     8
 0.0243251119     1     1     7    10
 0.0000000001     1     1     7    11
 0.0518206973     1     1     8     2
 0.0987399441     1     1     8     4
 0.0195024834     1     1     8     6
 0.0000000002     1     1     8     7
 0.2759577771     1     1     8     8
 -0.0000000001     1     1     8    10
 -0.0157872272     1     1     8    11
 -0.1689326099     1     1     9     5
 0.3215089466     1     1     9     9
 -0.0445846368     1     1    10     3
 0.0243251119     1     1    10     7
 -0.0000000001     1     1    10     8
 0.2768777380     1     1    10    10
 0.1017410492     1     1    11     2
 -0.1338088118     1     1    11     4
 0.0963885914     1     1    11     6
 0.0000000001     1     1    11     7
 -0.0157872272     1     1    11     8
 0.3624404310     1     1    11    11
 -0.9845503702     1     2     2     1
 -0.0070701797     1     2     2     4
 0.0008142000     1     2     2     6
 -0.0017767374     1     2     2     8
 0.0027874518     1     2     2    11
 0.0313659252     1     2     3     3
 -0.0066505887     1     2     3     7
 -0.0048740627     1     2     3    10
 -0.0663772699     1     2     4     1
 0.0360447579     1     2     4     4
 -0.0045250634     1     2     4     6
 0.0061656154     1     2     4     8
 -0.0122157853     1     2     4    11
 0.0407560543     1     2     5     5
 -0.0127561243     1     2     5     9
 -0.0855603195     1     2     6     1
 -0.0042493468     1     2     6     4
 0.0007235912     1     2     6     6
 -0.0007782040     1     2     6     8
 0.0020251196     1     2     6    11
 -0.0048168217     1     2     7     3
 0.0013600754     1     2     7     7
 -0.0000000001     1     2     7     8
 0.0009086511     1     2     7    10
 -0.0518206973     1     2     8     1
 0.0042799574     1     2     8     4
 -0.0004948235     1     2     8     6
 -0.0000000001     1     2     8     7
 0.0014920919     1     2     8     8
 -0.0020766055     1     2     8    11
 -0.0096478616     1     2     9     5
 0.0044752101     1     2     9     9
 -0.0032620062     1     2    10     3
 0.0008165004     1     2    10     7
 0.0007889662     1     2    10    10
 -0.1017410492     1     2    11     1
 -0.0100857522     1     2    11     4
 0.0017315858     1     2    11     6
 -0.0024887520     1     2    11     8
 0.0047336255     1     2    11    11
 -0.0012804498     1     3     2     7
 -0.0012610485     1     3     2    10
 -0.8724443124     1     3     3     1
 -0.0313659252     1     3     3     2
 -0.0106160319     1     3     3     4
 -0.0030108654     1     3     3     6
 -0.0036375479     1     3     3     8
 -0.0011917979     1     3     3    11
 0.0004669190     1     3     4     7
 0.0021594229     1     3     4    10
 0.0012433064     1     3     6     7
 -0.0000923941     1     3     6    10
 0.0899323705     1     3     7     1
 0.0048168217     1     3     7     2
 0.0017062343     1     3     7     4
 0.0020017182     1     3     7     6
 0.0012553628     1     3     7     8
 0.0013343574     1     3     7    11
 0.0006711817     1     3     8     7
 -0.0007598457     1     3     8    10
 0.0445846368     1     3    10     1
 0.0032620062     1     3    10     2
 0.0010607130     1     3    10     4
 0.0007707361     1     3    10     6
 -0.0007325274     1     3    10     8
 0.0019578113     1     3    10    11
 0.0007890946     1     3    11     7
 0.0007337728     1     3    11    10
 -0.0663772699     1     4     2     1
 0.0070701797     1     4     2     2
 0.0001799635     1     4     2     6
 0.0013310633     1     4     2     8
 -0.0010482280     1     4     2    11
 0.0106160319     1     4     3     3
 -0.0013650183     1     4     3     7
 0.0010545548     1     4     3    10
 -0.9494083124     1     4     4     1
 -0.0360447579     1     4     4     2
 -0.0057349431     1     4     4     6
 -0.0026440836     1     4     4     8
 -0.0082897602     1     4     4    11
 0.0135980366     1     4     5     5
 -0.0041123765     1     4     5     9
 0.0476724362     1     4     6     1
 0.0042493468     1     4     6     2
 0.0020296759     1     4     6     6
 -0.0005432389     1     4     6     8
 0.0025966924     1     4     6    11
 -0.0017062343     1     4     7     3
 0.0010058491     1     4     7     7
 -0.0000000001     1     4     7     8
 0.0008471035     1     4     7    10
 -0.0987399441     1     4     8     1
 -0.0042799574     1     4     8     2
 -0.0018746295     1     4     8     6
 -0.0000000001     1     4     8     7
 -0.0016886012     1     4     8     8
 0.0000000001     1     4     8    10
 -0.0008032201     1     4     8    11
 -0.0034516611     1     4     9     5
 0.0014757365     1     4     9     9
 -0.0010607130     1     4    10     3
 0.0012839788     1     4    10     7
 0.0000000001     1     4    10     8
 -0.0000449314     1     4    10    10
 0.1338088118     1     4    11     1
 0.0100857522     1     4    11     2
 0.0035158356     1     4    11     6
 0.0015423291     1     4    11     8
 0.0051636792     1     4    11    11
 -0.0019910738     1     5     2     9
 -0.0004288365     1     5     4     9
 -0.9939789591     1     5     5     1
 -0.0407560543     1     5     5     2
 -0.0135980366     1     5     5     4
 -0.0052872086     1     5     5     6
 -0.0064036334     1     5     5     8
 -0.0068146315     1     5     5    11
 0.0017718083     1     5     6     9
 0.0001963512     1     5     8     9
 0.1689326099     1     5     9     1
 0.0096478616     1     5     9     2
 0.0034516611     1     5     9     4
 0.0035004753     1     5     9     6
 0.0022420246     1     5     9     8
 0.0018768539     1     5     9    11
 -0.0004389782     1     5    11     9
 -0.0855603195     1     6     2     1
 -0.0008142000     1     6     2     2
 -0.0001799635     1     6     2     4
 -0.0002909227     1     6     2     8
 0.0003146488     1     6     2    11
 0.0030108654     1     6     3     3
 -0.0007592411     1     6     3     7
 -0.0008663522     1     6     3    10
 0.0476724362     1     6     4     1
 0.0045250634     1     6     4     2
 0.0057349431     1     6     4     4
 0.0013032786     1     6     4     8
 -0.0009331235     1     6     4    11
 0.0052872086     1     6     5     5
 -0.0016689947     1     6     5     9
 -0.2481378999     1     6     6     1
 -0.0007235912     1     6     6     2
 -0.0020296759     1     6     6     4
 -0.0003000142     1     6     6     8
 0.0004145666     1     6     6    11
 -0.0020017182     1     6     7     3
 0.0003914383     1     6     7     7
 0.0002425925     1     6     7    10
 -0.0195024834     1     6     8     1
 0.0004948235     1     6     8     2
 0.0018746295     1     6     8     4
 0.0006572360     1     6     8     8
 -0.0006588841     1     6     8    11
 -0.0035004753     1     6     9     5
 0.0012828150     1     6     9     9
 -0.0007707361     1     6    10     3
 0.0000343777     1     6    10     7
 0.0001672864     1     6    10    10
 -0.0963885914     1     6    11     1
 -0.0017315858     1     6    11     2
 -0.0035158356     1     6    11     4
 -0.0009533892     1     6    11     8
 0.0006305640     1     6    11    11
 0.0012804498     1     7     2     3
 0.0000879534     1     7     2    10
 0.0899323705     1     7     3     1
 0.0066505887     1     7     3     2
 0.0013650183     1     7     3     4
 0.0007592411     1     7     3     6
 0.0006182120     1     7     3     8
 0.0005240809     1     7     3    11
 -0.0004669190     1     7     4     3
 -0.0004341373     1     7     4    10
 -0.0012433064     1     7     6     3
 0.0002082764     1     7     6    10
 -0.2102656126     1     7     7     1
 -0.0013600754     1     7     7     2
 -0.0010058491     1     7     7     4
 -0.0003914383     1     7     7     6
 -0.0004042248     1     7     7     8
 -0.0001266732     1     7     7    11
 -0.0000000002     1     7     8     1
 0.0000000001     1     7     8     2
 -0.0006711817     1     7     8     3
 0.0000000001     1     7     8     4
 0.0002732381     1     7     8    10
 -0.0243251119     1     7    10     1
 -0.0008165004     1     7    10     2
 -0.0012839788     1     7    10     4
 -0.0000343777     1     7    10     6
 -0.0000319439     1     7    10     8
 -0.0000674570     1     7    10    11
 -0.0000000001     1     7    11     1
 -0.0007890946     1     7    11     3
 -0.0000436342     1     7    11    10
 -0.0518206973     1     8     2     1
 0.0017767374     1     8     2     2
 -0.0013310633     1     8     2     4
 0.0002909227     1     8     2     6
 0.0004524345     1     8     2    11
 0.0036375479     1     8     3     3
 -0.0006182120     1     8     3     7
 -0.0000772998     1     8     3    10
 -0.0987399441     1     8     4     1
 -0.0061656154     1     8     4     2
 0.0026440836     1     8     4     4
 -0.0013032786     1     8     4     6
 -0.0023175858     1     8     4    11
 0.0064036334     1     8     5     5
 -0.0020340692     1     8     5     9
 -0.0195024834     1     8     6     1
 0.0007782040     1     8     6     2
 0.0005432389     1     8     6     4
 0.0003000142     1     8     6     6
 0.0002957479     1     8     6    11
 -0.0000000002     1     8     7     1
 0.0000000001     1     8     7     2
 -0.0012553628     1     8     7     3
 0.0000000001     1     8     7     4
 0.0004042248     1     8     7     7
 0.0003052038     1     8     7    10
 -0.2759577771     1     8     8     1
 -0.0014920919     1     8     8     2
 0.0016886012     1     8     8     4
 -0.0006572360     1     8     8     6
 -0.0009166358     1     8     8    11
 -0.0022420246     1     8     9     5
 0.0008541372     1     8     9     9
 0.0000000001     1     8    10     1
 0.0007325274     1     8    10     3
 -0.0000000001     1     8    10     4
 0.0000319439     1     8    10     7
 -0.0001503312     1     8    10    10
 0.0157872272     1     8    11     1
 0.0024887520     1     8    11     2
 -0.0015423291     1     8    11     4
 0.0009533892     1     8    11     6
 0.0016732465     1     8    11    11
 0.0019910738     1     9     2     5
 0.0004288365     1     9     4     5
 0.1689326099     1     9     5     1
 0.0127561243     1     9     5     2
 0.0041123765     1     9     5     4
 0.0016689947     1     9     5     6
 0.0020340692     1     9     5     8
 0.0021979089     1     9     5    11
 -0.0017718083     1     9     6     5
 -0.0001963512     1     9     8     5
 -0.3215089466     1     9     9     1
 -0.0044752101     1     9     9     2
 -0.0014757365     1     9     9     4
 -0.0012828150     1     9     9     6
 -0.0008541372     1     9     9     8
 -0.0007440283     1     9     9    11
 0.0004389782     1     9    11     5
 0.0012610485     1    10     2     3
 -0.0000879534     1    10     2     7
 0.0445846368     1    10     3     1
 0.0048740627     1    10     3     2
 -0.0010545548     1    10     3     4
 0.0008663522     1    10     3     6
 0.0000772998     1    10     3     8
 0.0012097508     1    10     3    11
 -0.0021594229     1    10     4     3
 0.0004341373     1    10     4     7
 0.0000923941     1    10     6     3
 -0.0002082764     1    10     6     7
 -0.0243251119     1    10     7     1
 -0.0009086511     1    10     7     2
 -0.0008471035     1    10     7     4
 -0.0002425925     1    10     7     6
 -0.0003052038     1    10     7     8
 -0.0000236125     1    10     7    11
 0.0000000001     1    10     8     1
 0.0007598457     1    10     8     3
 -0.0000000001     1    10     8     4
 -0.0002732381     1    10     8     7
 -0.2768777380     1    10    10     1
 -0.0007889662     1    10    10     2
 0.0000449314     1    10    10     4
 -0.0001672864     1    10    10     6
 0.0001503312     1    10    10     8
 -0.0004198768     1    10    10    11
 -0.0007337728     1    10    11     3
 0.0000436342     1    10    11     7
 -0.1017410492     1    11     2     1
 -0.0027874518     1    11     2     2
 0.0010482280     1    11     2     4
 -0.0003146488     1    11     2     6
 -0.0004524345     1    11     2     8
 0.0011917979     1    11     3     3
 -0.0005240809     1    11     3     7
 -0.0012097508     1    11     3    10
 0.1338088118     1    11     4     1
 0.0122157853     1    11     4     2
 0.0082897602     1    11     4     4
 0.0009331235     1    11     4     6
 0.0023175858     1    11     4     8
 0.0068146315     1    11     5     5
 -0.0021979089     1    11     5     9
 -0.0963885914     1    11     6     1
 -0.0020251196     1    11     6     2
 -0.0025966924     1    11     6     4
 -0.0004145666     1    11     6     6
 -0.0002957479     1    11     6     8
 -0.0000000001     1    11     7     1
 -0.0013343574     1    11     7     3
 0.0001266732     1    11     7     7
 0.0000236125     1    11     7    10
 0.0157872272     1    11     8     1
 0.0020766055     1    11     8     2
 0.0008032201     1    11     8     4
 0.0006588841     1    11     8     6
 0.0009166358     1    11     8     8
 -0.0018768539     1    11     9     5
 0.0007440283     1    11     9     9
 -0.0019578113     1    11    10     3
 0.0000674570     1    11    10     7
 0.0004198768     1    11    10    10
 -0.3624404310     1    11    11     1
 -0.0047336255     1    11    11     2
 -0.0051636792     1    11    11     4
 -0.0006305640     1    11    11     6
 -0.0016732465     1    11    11     8
 -0.9845503702     2     1     1     2
 -0.0663772699     2     1     1     4
 -0.0855603195     2     1     1     6
 -0.0518206973     2     1     1     8
 -0.1017410492     2     1     1    11
 0.0313659252     2     1     3     3
 -0.0048168217     2     1     3     7
 -0.0032620062     2     1     3    10
 -0.0070701797     2     1     4     2
 0.0360447579     2     1     4     4
 -0.0042493468     2     1     4     6
 0.0042799574     2     1     4     8
 -0.0100857522     2     1     4    11
 0.0407560543     2     1     5     5
 -0.0096478616     2     1     5     9
 0.0008142000     2     1     6     2
 -0.0045250634     2     1     6     4
 0.0007235912     2     1     6     6
 -0.0004948235     2     1     6     8
 0.0017315858     2     1     6    11
 -0.0066505887     2     1     7     3
 0.0013600754     2     1     7     7
 0.0008165004     2     1     7    10
 -0.0017767374     2     1     8     2
 0.0061656154     2     1     8     4
 -0.0007782039     2     1     8     6
 0.0014920918     2     1     8     8
 -0.0024887520     2     1     8    11
 -0.0127561243     2     1     9     5
 0.0044752101     2     1     9     9
 -0.0048740627     2     1    10     3
 0.0009086511     2     1    10     7
 0.0007889662     2     1    10    10
 0.0027874518     2     1    11     2
 -0.0122157853     2     1    11     4
 0.0020251196     2     1    11     6
 -0.0020766055     2     1    11     8
 0.0047336255     2     1    11    11
 0.9845503702     2     2     1     1
 0.0070701797     2     2     1     4
 -0.0008142000     2     2     1     6
 0.0017767374     2     2     1     8
 -0.0027874518     2     2     1    11
 0.5290592943     2     2     3     3
 -0.0389477617     2     2     3     7
 -0.0104644311     2     2     3    10
 0.0070701797     2     2     4     1
 0.5505000240     2     2     4     4
 -0.0210361570     2     2     4     6
 0.0432663340     2     2     4     8
 -0.0534245937     2     2     4    11
 0.5767281811     2     2     5     5
 -0.0735187738     2     2     5     9
 -0.0008142000     2     2     6     1
 -0.0210361570     2     2     6     4
 0.2313582360     2     2     6     6
 -0.0000000002     2     2     6     7
 0.0115443219     2     2     6     8
 0.0000000001     2     2     6    10
 0.0670329050     2     2     6    11
 -0.0389477617     2     2     7     3
 -0.0000000002     2     2     7     6
 0.1998145008     2     2     7     7
 -0.0000000010     2     2     7     8
 0.0191189008     2     2     7    10
 -0.0000000004     2     2     7    11
 0.0017767374     2     2     8     1
 0.0432663340     2     2     8     4
 0.0115443219     2     2     8     6
 -0.0000000010     2     2     8     7
 0.2477334474     2     2     8     8
 0.0000000007     2     2     8    10
 -0.0046411161     2     2     8    11
 -0.0735187738     2     2     9     5
 0.2769061468     2     2     9     9
 -0.0104644311     2     2    10     3
 0.0000000001     2     2    10     6
 0.0191189008     2     2    10     7
 0.0000000007     2     2    10     8
 0.2641263304     2     2    10    10
 0.0000000003     2     2    10    11
 -0.0027874518     2     2    11     1
 -0.0534245937     2     2    11     4
 0.0670329050     2     2    11     6
 -0.0000000004     2     2    11     7
 -0.0046411161     2     2    11     8
 0.0000000003     2     2    11    10
 0.3036511690     2     2    11    11
 0.0012804498     2     3     1     7
 0.0012610485     2     3     1    10
 -0.0313659252     2     3     3     1
 -0.5290592943     2     3     3     2
 -0.0015509280     2     3     3     4
 -0.0399467171     2     3     3     6
 -0.0232634701     2     3     3     8
 -0.0537772925     2     3     3    11
 -0.0039653409     2     3     4     7
 -0.0157129327     2     3     4    10
 0.0000000001     2     3     6     6
 -0.0205132412     2     3     6     7
 0.0000000004     2     3     6     8
 -0.0024451077     2     3     6    10
 0.0066505887     2     3     7     1
 0.0389477617     2     3     7     2
 -0.0005684231     2     3     7     4
 -0.0155244496     2     3     7     6
 -0.0040897307     2     3     7     8
 0.0000000001     2     3     7    10
 -0.0046014975     2     3     7    11
 0.0000000004     2     3     8     6
 -0.0073010732     2     3     8     7
 -0.0000000004     2     3     8     8
 0.0138805756     2     3     8    10
 -0.0000000005     2     3     8    11
 0.0048740627     2     3    10     1
 0.0104644311     2     3    10     2
 -0.0029347279     2     3    10     4
 -0.0014863549     2     3    10     6
 0.0000000001     2     3    10     7
 0.0159659716     2     3    10     8
 -0.0000000005     2     3    10    10
 -0.0142948628     2     3    10    11
 -0.0113538236     2     3    11     7
 -0.0000000005     2     3    11     8
 -0.0148132596     2     3    11    10
 -0.0000000002     2     3    11    11
 0.0663772699     2     4     1     1
 -0.0070701797     2     4     1     2
 -0.0001799635     2     4     1     6
 -0.0013310633     2     4     1     8
 0.0010482280     2     4     1    11
 0.0015509280     2     4     3     3
 -0.0035254520     2     4     3     7
 -0.0126969469     2     4     3    10
 -0.0360447579     2     4     4     1
 -0.5505000240     2     4     4     2
 -0.0399725455     2     4     4     6
 -0.0175873613     2     4     4     8
 -0.0464399804     2     4     4    11
 0.0036978476     2     4     5     5
 -0.0020899099     2     4     5     9
 0.0045250634     2     4     6     1
 0.0210361570     2     4     6     2
 -0.0090527308     2     4     6     6
 -0.0000000001     2     4     6     7
 0.0136953441     2     4     6     8
 -0.0088248258     2     4     6    11
 0.0005684231     2     4     7     3
 -0.0000000001     2     4     7     6
 -0.0069310012     2     4     7     7
 -0.0000000003     2     4     7     8
 -0.0088651257     2     4     7    10
 -0.0000000001     2     4     7    11
 -0.0061656154     2     4     8     1
 -0.0432663340     2     4     8     2
 0.0069711656     2     4     8     6
 -0.0000000003     2     4     8     7
 0.0138274634     2     4     8     8
 0.0000000002     2     4     8    10
 -0.0127977361     2     4     8    11
 -0.0009120544     2     4     9     5
 0.0031983194     2     4     9     9
 0.0029347279     2     4    10     3
 -0.0103439920     2     4    10     7
 0.0000000002     2     4    10     8
 0.0052668934     2     4    10    10
 0.0000000001     2     4    10    11
 0.0122157853     2     4    11     1
 0.0534245937     2     4    11     2
 -0.0052153211     2     4    11     6
 -0.0000000001     2     4    11     7
 -0.0027131000     2     4    11     8
 0.0000000001     2     4    11    10
 -0.0079009599     2     4    11    11
 0.0019910738     2     5     1     9
 -0.0008627558     2     5     4     9
 -0.0407560543     2     5     5     1
 -0.5767281811     2     5     5     2
 -0.0036978476     2     5     5     4
 -0.0398698575     2     5     5     6
 -0.0156690927     2     5     5     8
 -0.0373993621     2     5     5    11
 -0.0186301918     2     5     6     9
 -0.0022192914     2     5     8     9
 0.0127561243     2     5     9     1
 0.0735187738     2     5     9     2
 0.0009120544     2     5     9     4
 -0.0096913622     2     5     9     6
 0.0018884525     2     5     9     8
 0.0123155463     2     5     9    11
 0.0026990643     2     5    11     9
 0.0855603195     2     6     1     1
 0.0008142000     2     6     1     2
 0.0001799635     2     6     1     4
 0.0002909227     2     6     1     8
 -0.0003146488     2     6     1    11
 0.0399467171     2     6     3     3
 -0.0048709246     2     6     3     7
 -0.0000000001     2     6     3     8
 -0.0008205401     2     6     3    10
 0.0042493468     2     6     4     1
 0.0210361570     2     6     4     2
 0.0399725455     2     6     4     4
 -0.0000000001     2     6     4     7
 0.0065286529     2     6     4     8
 0.0000000001     2     6     4    10
 -0.0034511551     2     6     4    11
 0.0398698575     2     6     5     5
 -0.0087442481     2     6     5     9
 -0.0007235912     2     6     6     1
 -0.2313582360     2     6     6     2
 -0.0000000001     2     6     6     3
 0.0090527308     2     6     6     4
 -0.0000000001     2     6     6     7
 -0.0006058425     2     6     6     8
 0.0000000001     2     6     6    10
 0.0020186964     2     6     6    11
 0.0000000002     2     6     7     2
 0.0155244496     2     6     7     3
 0.0000000001     2     6     7     4
 0.0018360395     2     6     7     7
 0.0000000001     2     6     7     8
 0.0021159242     2     6     7    10
 0.0000000001     2     6     7    11
 0.0007782039     2     6     8     1
 -0.0115443219     2     6     8     2
 -0.0000000004     2     6     8     3
 -0.0069711656     2     6     8     4
 -0.0000000003     2     6     8     7
 0.0040268173     2     6     8     8
 0.0000000002     2     6     8    10
 -0.0008808822     2     6     8    11
 0.0096913622     2     6     9     5
 0.0062239944     2     6     9     9
 -0.0000000001     2     6    10     2
 0.0014863549     2     6    10     3
 0.0010727078     2     6    10     7
 -0.0000000001     2     6    10     8
 0.0063244923     2     6    10    10
 -0.0020251196     2     6    11     1
 -0.0670329050     2     6    11     2
 0.0052153211     2     6    11     4
 -0.0013480099     2     6    11     8
 0.0053831865     2     6    11    11
 -0.0012804498     2     7     1     3
 -0.0000879534     2     7     1    10
 0.0048168217     2     7     3     1
 0.0389477617     2     7     3     2
 0.0035254520     2     7     3     4
 0.0048709246     2     7     3     6
 0.0032186969     2     7     3     8
 0.0066640547     2     7     3    11
 0.0039653409     2     7     4     3
 0.0000000001     2     7     4     6
 0.0013792056     2     7     4    10
 -0.0000000001     2     7     5     9
 0.0000000002     2     7     6     2
 0.0205132412     2     7     6     3
 0.0000000001     2     7     6     4
 0.0000000001     2     7     6     6
 0.0000000004     2     7     6     8
 0.0010429429     2     7     6    10
 0.0000000001     2     7     6    11
 -0.0013600754     2     7     7     1
 -0.1998145008     2     7     7     2
 0.0069310012     2     7     7     4
 -0.0018360395     2     7     7     6
 0.0000077494     2     7     7     8
 0.0000000001     2     7     7    10
 0.0002646488     2     7     7    11
 0.0000000010     2     7     8     2
 0.0073010732     2     7     8     3
 0.0000000003     2     7     8     4
 0.0000000003     2     7     8     6
 -0.0000000002     2     7     8     8
 -0.0009424744     2     7     8    10
 -0.0000000002     2     7     8    11
 -0.0009086511     2     7    10     1
 -0.0191189008     2     7    10     2
 -0.0000000001     2     7    10     3
 0.0103439920     2     7    10     4
 -0.0010727078     2     7    10     6
 -0.0008179535     2     7    10     8
 -0.0000000005     2     7    10    10
 -0.0002317981     2     7    10    11
 0.0000000004     2     7    11     2
 0.0113538236     2     7    11     3
 0.0000000001     2     7    11     4
 -0.0000000004     2     7    11     8
 0.0011954603     2     7    11    10
 -0.0000000001     2     7    11    11
 0.0518206973     2     8     1     1
 -0.0017767374     2     8     1     2
 0.0013310633     2     8     1     4
 -0.0002909227     2     8     1     6
 -0.0004524345     2     8     1    11
 0.0232634701     2     8     3     3
 0.0000000001     2     8     3     6
 -0.0032186969     2     8     3     7
 -0.0017686323     2     8     3    10
 -0.0000000001     2     8     3    11
 -0.0042799574     2     8     4     1
 -0.0432663340     2     8     4     2
 0.0175873613     2     8     4     4
 -0.0065286529     2     8     4     6
 -0.0099409310     2     8     4    11
 0.0156690927     2     8     5     5
 -0.0042557206     2     8     5     9
 0.0004948235     2     8     6     1
 -0.0115443219     2     8     6     2
 -0.0000000004     2     8     6     3
 -0.0136953441     2     8     6     4
 0.0006058425     2     8     6     6
 -0.0000000004     2     8     6     7
 0.0000000002     2     8     6    10
 0.0004650551     2     8     6    11
 0.0000000010     2     8     7     2
 0.0040897307     2     8     7     3
 0.0000000003     2     8     7     4
 -0.0000000001     2     8     7     6
 -0.0000077494     2     8     7     7
 -0.0001454610     2     8     7    10
 0.0000000003     2     8     7    11
 -0.0014920918     2     8     8     1
 -0.2477334474     2     8     8     2
 0.0000000004     2     8     8     3
 -0.0138274634     2     8     8     4
 -0.0040268173     2     8     8     6
 0.0000000002     2     8     8     7
 -0.0000000001     2     8     8    10
 -0.0035356954     2     8     8    11
 -0.0018884525     2     8     9     5
 0.0028326229     2     8     9     9
 -0.0000000007     2     8    10     2
 -0.0159659716     2     8    10     3
 -0.0000000002     2     8    10     4
 0.0000000001     2     8    10     6
 0.0008179535     2     8    10     7
 0.0027337334     2     8    10    10
 -0.0000000002     2     8    10    11
 0.0020766055     2     8    11     1
 0.0046411161     2     8    11     2
 0.0000000005     2     8    11     3
 0.0027131000     2     8    11     4
 0.0013480099     2     8    11     6
 0.0000000004     2     8    11     7
 -0.0000000002     2     8    11    10
 0.0038034095     2     8    11    11
 -0.0019910738     2     9     1     5
 0.0008627558     2     9     4     5
 0.0096478616     2     9     5     1
 0.0735187738     2     9     5     2
 0.0020899099     2     9     5     4
 0.0087442481     2     9     5     6
 0.0000000001     2     9     5     7
 0.0042557206     2     9     5     8
 0.0095568321     2     9     5    11
 0.0186301918     2     9     6     5
 0.0022192914     2     9     8     5
 -0.0044752101     2     9     9     1
 -0.2769061468     2     9     9     2
 -0.0031983194     2     9     9     4
 -0.0062239944     2     9     9     6
 -0.0028326229     2     9     9     8
 -0.0063679995     2     9     9    11
 -0.0026990643     2     9    11     5
 -0.0012610485     2    10     1     3
 0.0000879534     2    10     1     7
 0.0032620062     2    10     3     1
 0.0104644311     2    10     3     2
 0.0126969469     2    10     3     4
 0.0008205401     2    10     3     6
 0.0017686323     2    10     3     8
 0.0003528246     2    10     3    11
 0.0157129327     2    10     4     3
 -0.0000000001     2    10     4     6
 -0.0013792056     2    10     4     7
 -0.0000000001     2    10     6     2
 0.0024451077     2    10     6     3
 -0.0000000001     2    10     6     6
 -0.0010429429     2    10     6     7
 -0.0000000002     2    10     6     8
 -0.0008165004     2    10     7     1
 -0.0191189008     2    10     7     2
 -0.0000000001     2    10     7     3
 0.0088651257     2    10     7     4
 -0.0021159242     2    10     7     6
 -0.0000000001     2    10     7     7
 0.0001454610     2    10     7     8
 -0.0014454082     2    10     7    11
 -0.0000000007     2    10     8     2
 -0.0138805756     2    10     8     3
 -0.0000000002     2    10     8     4
 -0.0000000002     2    10     8     6
 0.0009424744     2    10     8     7
 0.0000000001     2    10     8     8
 0.0000000001     2    10     8    11
 -0.0007889662     2    10    10     1
 -0.2641263304     2    10    10     2
 0.0000000005     2    10    10     3
 -0.0052668934     2    10    10     4
 -0.0063244923     2    10    10     6
 0.0000000005     2    10    10     7
 -0.0027337334     2    10    10     8
 -0.0040121334     2    10    10    11
 -0.0000000003     2    10    11     2
 0.0148132596     2    10    11     3