&FCI NORB=  8,NELEC= 10,MS2=0,
 ORBSYM=1,1,1,1,1,1,1,1
 ISYM=1,
&END
 0.9838192615     1     1     2     2
 0.0677682439     1     1     2     4
 -0.1282595243     1     1     2     6
 0.8680812925     1     1     3     3
 0.1512148539     1     1     3     7
 0.0895610827     1     1     3     8
 0.0677682439     1     1     4     2
 0.9498457111     1     1     4     4
 0.0654864584     1     1     4     6
 0.9969381523     1     1     5     5
 -0.1282595243     1     1     6     2
 0.0654864584     1     1     6     4
 0.3484701452     1     1     6     6
 0.1512148539     1     1     7     3
 0.3258961177     1     1     7     7
 0.0991565837     1     1     7     8
 0.0895610827     1     1     8     3
 0.0991565837     1     1     8     7
 0.4554323564     1     1     8     8
 -0.9838192615     1     2     2     1
 -0.0070591353     1     2     2     4
 -0.0011412950     1     2     2     6
 0.0310153721     1     2     3     3
 0.0122857727     1     2     3     7
 0.0111880881     1     2     3     8
 -0.0677682439     1     2     4     1
 0.0359577261     1     2     4     4
 0.0068112221     1     2     4     6
 0.0408593606     1     2     5     5
 0.1282595243     1     2     6     1
 0.0063726084     1     2     6     4
 0.0018259570     1     2     6     6
 0.0086267067     1     2     7     3
 0.0048079097     1     2     7     7
 0.0042633329     1     2     7     8
 0.0071845702     1     2     8     3
 0.0037802538     1     2     8     7
 0.0033799858     1     2     8     8
 0.0026691531     1     3     2     7
 0.0032702399     1     3     2     8
 -0.8680812925     1     3     3     1
 -0.0310153721     1     3     3     2
 -0.0106113898     1     3     3     4
 0.0044713336     1     3     3     6
 -0.0012594917     1     3     4     7
 -0.0048897409     1     3     4     8
 0.0021148604     1     3     6     7
 -0.0004136085     1     3     6     8
 -0.1512148539     1     3     7     1
 -0.0086267067     1     3     7     2
 -0.0031182709     1     3     7     4
 0.0043554105     1     3     7     6
 -0.0895610827     1     3     8     1
 -0.0071845702     1     3     8     2
 -0.0023612354     1     3     8     4
 0.0026241385     1     3     8     6
 -0.0677682439     1     4     2     1
 0.0070591353     1     4     2     2
 -0.0002197127     1     4     2     6
 0.0106113898     1     4     3     3
 0.0020410489     1     4     3     7
 -0.0024703189     1     4     3     8
 -0.9498457111     1     4     4     1
 -0.0359577261     1     4     4     2
 0.0089525611     1     4     4     6
 0.0137435071     1     4     5     5
 -0.0654864584     1     4     6     1
 -0.0063726084     1     4     6     2
 0.0040155680     1     4     6     6
 0.0031182709     1     4     7     3
 0.0027144996     1     4     7     7
 0.0011281080     1     4     7     8
 0.0023612354     1     4     8     3
 0.0028541627     1     4     8     7
 0.0028010449     1     4     8     8
 -0.9969381523     1     5     5     1
 -0.0408593606     1     5     5     2
 -0.0137435071     1     5     5     4
 0.0086985857     1     5     5     6
 0.1282595243     1     6     2     1
 0.0011412950     1     6     2     2
 0.0002197127     1     6     2     4
 -0.0044713336     1     6     3     3
 -0.0021544337     1     6     3     7
 -0.0030292735     1     6     3     8
 -0.0654864584     1     6     4     1
 -0.0068112221     1     6     4     2
 -0.0089525611     1     6     4     4
 -0.0086985857     1     6     5     5
 -0.3484701452     1     6     6     1
 -0.0018259570     1     6     6     2
 -0.0040155680     1     6     6     4
 -0.0043554105     1     6     7     3
 -0.0017618096     1     6     7     7
 -0.0017507153     1     6     7     8
 -0.0026241385     1     6     8     3
 -0.0008374857     1     6     8     7
 -0.0005875503     1     6     8     8
 -0.0026691531     1     7     2     3
 0.0004422761     1     7     2     8
 -0.1512148539     1     7     3     1
 -0.0122857727     1     7     3     2
 -0.0020410489     1     7     3     4
 0.0021544337     1     7     3     6
 0.0012594917     1     7     4     3
 -0.0016868664     1     7     4     8
 -0.0021148604     1     7     6     3
 -0.0009115419     1     7     6     8
 -0.3258961177     1     7     7     1
 -0.0048079097     1     7     7     2
 -0.0027144996     1     7     7     4
 0.0017618096     1     7     7     6
 -0.0991565837     1     7     8     1
 -0.0037802538     1     7     8     2
 -0.0028541627     1     7     8     4
 0.0008374857     1     7     8     6
 -0.0032702399     1     8     2     3
 -0.0004422761     1     8     2     7
 -0.0895610827     1     8     3     1
 -0.0111880881     1     8     3     2
 0.0024703189     1     8     3     4
 0.0030292735     1     8     3     6
 0.0048897409     1     8     4     3
 0.0016868664     1     8     4     7
 0.0004136085     1     8     6     3
 0.0009115419     1     8     6     7
 -0.0991565837     1     8     7     1
 -0.0042633329     1     8     7     2
 -0.0011281080     1     8     7     4
 0.0017507153     1     8     7     6
 -0.4554323564     1     8     8     1
 -0.0033799858     1     8     8     2
 -0.0028010449     1     8     8     4
 0.0005875503     1     8     8     6
 -0.9838192615     2     1     1     2
 -0.0677682439     2     1     1     4
 0.1282595243     2     1     1     6
 0.0310153721     2     1     3     3
 0.0086267067     2     1     3     7
 0.0071845702     2     1     3     8
 -0.0070591353     2     1     4     2
 0.0359577261     2     1     4     4
 0.0063726084     2     1     4     6
 0.0408593606     2     1     5     5
 -0.0011412950     2     1     6     2
 0.0068112221     2     1     6     4
 0.0018259570     2     1     6     6
 0.0122857727     2     1     7     3
 0.0048079097     2     1     7     7
 0.0037802538     2     1     7     8
 0.0111880881     2     1     8     3
 0.0042633329     2     1     8     7
 0.0033799858     2     1     8     8
 0.9838192615     2     2     1     1
 0.0070591353     2     2     1     4
 0.0011412950     2     2     1     6
 0.5275102075     2     2     3     3
 0.0609033168     2     2     3     7
 0.0157848031     2     2     3     8
 0.0070591353     2     2     4     1
 0.5508190253     2     2     4     4
 0.0272918026     2     2     4     6
 0.5782789915     2     2     5     5
 0.0011412950     2     2     6     1
 0.0272918026     2     2     6     4
 0.3031462904     2     2     6     6
 0.0609033168     2     2     7     3
 0.2844231549     2     2     7     7
 0.0607407934     2     2     7     8
 0.0157848031     2     2     8     3
 0.0607407934     2     2     8     7
 0.4061536722     2     2     8     8
 -0.0026691531     2     3     1     7
 -0.0032702399     2     3     1     8
 -0.0310153721     2     3     3     1
 -0.5275102075     2     3     3     2
 -0.0018599176     2     3     3     4
 0.0594683773     2     3     3     6
 0.0102749208     2     3     4     7
 0.0324630815     2     3     4     8
 -0.0340392707     2     3     6     7
 -0.0001072143     2     3     6     8
 -0.0122857727     2     3     7     1
 -0.0609033168     2     3     7     2
 0.0016058993     2     3     7     4
 -0.0215958284     2     3     7     6
 -0.0111880881     2     3     8     1
 -0.0157848031     2     3     8     2
 0.0049841510     2     3     8     4
 0.0016987419     2     3     8     6
 0.0677682439     2     4     1     1
 -0.0070591353     2     4     1     2
 0.0002197127     2     4     1     6
 0.0018599176     2     4     3     3
 0.0087266365     2     4     3     7
 0.0275252657     2     4     3     8
 -0.0359577261     2     4     4     1
 -0.5508190253     2     4     4     2
 0.0594273083     2     4     4     6
 0.0045256375     2     4     5     5
 -0.0068112221     2     4     6     1
 -0.0272918026     2     4     6     2
 -0.0109307182     2     4     6     6
 -0.0016058993     2     4     7     3
 -0.0124914521     2     4     7     7
 -0.0024431101     2     4     7     8
 -0.0049841510     2     4     8     3
 -0.0081379597     2     4     8     7
 -0.0055167292     2     4     8     8
 -0.0408593606     2     5     5     1
 -0.5782789915     2     5     5     2
 -0.0045256375     2     5     5     4
 0.0576725568     2     5     5     6
 -0.1282595243     2     6     1     1
 -0.0011412950     2     6     1     2
 -0.0002197127     2     6     1     4
 -0.0594683773     2     6     3     3
 -0.0119880058     2     6     3     7
 -0.0011679862     2     6     3     8
 -0.0063726084     2     6     4     1
 -0.0272918026     2     6     4     2
 -0.0594273083     2     6     4     4
 -0.0576725568     2     6     5     5
 -0.0018259570     2     6     6     1
 -0.3031462904     2     6     6     2
 0.0109307182     2     6     6     4
 0.0215958284     2     6     7     3
 -0.0080655936     2     6     7     7
 -0.0123146837     2     6     7     8
 -0.0016987419     2     6     8     3
 -0.0071073983     2     6     8     7
 -0.0249698462     2     6     8     8
 0.0026691531     2     7     1     3
 -0.0004422761     2     7     1     8
 -0.0086267067     2     7     3     1
 -0.0609033168     2     7     3     2
 -0.0087266365     2     7     3     4
 0.0119880058     2     7     3     6
 -0.0102749208     2     7     4     3
 0.0050521950     2     7     4     8
 0.0340392707     2     7     6     3
 -0.0052849321     2     7     6     8
 -0.0048079097     2     7     7     1
 -0.2844231549     2     7     7     2
 0.0124914521     2     7     7     4
 0.0080655936     2     7     7     6
 -0.0042633329     2     7     8     1
 -0.0607407934     2     7     8     2
 0.0081379597     2     7     8     4
 0.0071073983     2     7     8     6
 0.0032702399     2     8     1     3
 0.0004422761     2     8     1     7
 -0.0071845702     2     8     3     1
 -0.0157848031     2     8     3     2
 -0.0275252657     2     8     3     4
 0.0011679862     2     8     3     6
 -0.0324630815     2     8     4     3
 -0.0050521950     2     8     4     7
 0.0001072143     2     8     6     3
 0.0052849321     2     8     6     7
 -0.0037802538     2     8     7     1
 -0.0607407934     2     8     7     2
 0.0024431101     2     8     7     4
 0.0123146837     2     8     7     6
 -0.0033799858     2     8     8     1
 -0.4061536722     2     8     8     2
 0.0055167292     2     8     8     4
 0.0249698462     2     8     8     6
 -0.8680812925     3     1     1     3
 -0.1512148539     3     1     1     7
 -0.0895610827     3     1     1     8
 -0.0310153721     3     1     2     3
 -0.0086267067     3     1     2     7
 -0.0071845702     3     1     2     8
 -0.0106113898     3     1     4     3
 -0.0031182709     3     1     4     7
 -0.0023612354     3     1     4     8
 0.0044713336     3     1     6     3
 0.0043554105     3     1     6     7
 0.0026241385     3     1     6     8
 0.0026691531     3     1     7     2
 -0.0012594917     3     1     7     4
 0.0021148604     3     1     7     6
 0.0032702399     3     1     8     2
 -0.0048897409     3     1     8     4
 -0.0004136085     3     1     8     6
 -0.0310153721     3     2     1     3
 -0.0122857727     3     2     1     7
 -0.0111880881     3     2     1     8
 -0.5275102075     3     2     2     3
 -0.0609033168     3     2     2     7
 -0.0157848031     3     2     2     8
 -0.0018599176     3     2     4     3
 0.0016058993     3     2     4     7
 0.0049841510     3     2     4     8
 0.0594683773     3     2     6     3
 -0.0215958284     3     2     6     7
 0.0016987419     3     2     6     8
 -0.0026691531     3     2     7     1
 0.0102749208     3     2     7     4
 -0.0340392707     3     2     7     6
 -0.0032702399     3     2     8     1
 0.0324630815     3     2     8     4
 -0.0001072143     3     2     8     6
 0.8680812925     3     3     1     1
 0.0310153721     3     3     1     2
 0.0106113898     3     3     1     4
 -0.0044713336     3     3     1     6
 0.0310153721     3     3     2     1
 0.5275102075     3     3     2     2
 0.0018599176     3     3     2     4
 -0.0594683773     3     3     2     6
 0.0106113898     3     3     4     1
 0.0018599176     3     3     4     2
 0.5619135233     3     3     4     4
 0.0300436701     3     3     4     6
 0.5855425296     3     3     5     5
 -0.0044713336     3     3     6     1
 -0.0594683773     3     3     6     2
 0.0300436701     3     3     6     4
 0.3062772909     3     3     6     6
 0.2704876628     3     3     7     7
 0.0463809788     3     3     7     8
 0.0463809788     3     3     8     7
 0.3804544527     3     3     8     8
 -0.0106113898     3     4     1     3
 -0.0020410489     3     4     1     7
 0.0024703189     3     4     1     8
 -0.0018599176     3     4     2     3
 -0.0087266365     3     4     2     7
 -0.0275252657     3     4     2     8
 -0.5619135233     3     4     4     3
 -0.0759158975     3     4     4     7
 -0.0399018068     3     4     4     8
 -0.0300436701     3     4     6     3
 0.0002455861     3     4     6     7
 -0.0029934406     3     4     6     8
 0.0012594917     3     4     7     1
 -0.0102749208     3     4     7     2
 0.0077183855     3     4     7     6
 0.0048897409     3     4     8     1
 -0.0324630815     3     4     8     2
 0.0002520481     3     4     8     6
 -0.5855425296     3     5     5     3
 -0.0783358580     3     5     5     7
 -0.0315977924     3     5     5     8
 0.0044713336     3     6     1     3
 0.0021544337     3     6     1     7
 0.0030292735     3     6     1     8
 0.0594683773     3     6     2     3
 0.0119880058     3     6     2     7
 0.0011679862     3     6     2     8
 -0.0300436701     3     6     4     3
 -0.0069344557     3     6     4     7
 -0.0024732171     3     6     4     8
 -0.3062772909     3     6     6     3
 -0.0255394536     3     6     6     7
 0.0131884647     3     6     6     8
 -0.0021148604     3     6     7     1
 0.0340392707     3     6     7     2
 -0.0077183855     3     6     7     4
 0.0004136085     3     6     8     1
 0.0001072143     3     6     8     2
 -0.0002520481     3     6     8     4
 0.1512148539     3     7     1     1
 0.0122857727     3     7     1     2
 0.0020410489     3     7     1     4
 -0.0021544337     3     7     1     6
 0.0086267067     3     7     2     1
 0.0609033168     3     7     2     2
 0.0087266365     3     7     2     4
 -0.0119880058     3     7     2     6
 0.0031182709     3     7     4     1
 -0.0016058993     3     7     4     2
 0.0759158975     3     7     4     4
 0.0069344557     3     7     4     6
 0.0783358580     3     7     5     5
 -0.0043554105     3     7     6     1
 0.0215958284     3     7     6     2
 -0.0002455861     3     7     6     4
 0.0255394536     3     7     6     6
 -0.2704876628     3     7     7     3
 0.0186425777     3     7     7     8
 -0.0463809788     3     7     8     3
 0.0290137900     3     7     8     8
 0.0895610827     3     8     1     1
 0.0111880881     3     8     1     2
 -0.0024703189     3     8     1     4
 -0.0030292735     3     8     1     6
 0.0071845702     3     8     2     1
 0.0157848031     3     8     2     2
 0.0275252657     3     8     2     4
 -0.0011679862     3     8     2     6
 0.0023612354     3     8     4     1
 -0.0049841510     3     8     4     2
 0.0399018068     3     8     4     4
 0.0024732171     3     8     4     6
 0.0315977924     3     8     5     5
 -0.0026241385     3     8     6     1
 -0.0016987419     3     8     6     2
 0.0029934406     3     8     6     4
 -0.0131884647     3     8     6     6
 -0.0463809788     3     8     7     3
 -0.0186425777     3     8     7     7
 -0.3804544527     3     8     8     3
 -0.0290137900     3     8     8     7
 -0.0677682439     4     1     1     2
 -0.9498457111     4     1     1     4
 -0.0654864584     4     1     1     6
 0.0070591353     4     1     2     2
 -0.0359577261     4     1     2     4
 -0.0063726084     4     1     2     6
 0.0106113898     4     1     3     3
 0.0031182709     4     1     3     7
 0.0023612354     4     1     3     8
 0.0137435071     4     1     5     5
 -0.0002197127     4     1     6     2
 0.0089525611     4     1     6     4
 0.0040155680     4     1     6     6
 0.0020410489     4     1     7     3
 0.0027144996     4     1     7     7
 0.0028541627     4     1     7     8
 -0.0024703189     4     1     8     3
 0.0011281080     4     1     8     7
 0.0028010449     4     1     8     8
 0.0677682439     4     2     1     1
 -0.0359577261     4     2     1     4
 -0.0068112221     4     2     1     6
 -0.0070591353     4     2     2     1
 -0.5508190253     4     2     2     4
 -0.0272918026     4     2     2     6
 0.0018599176     4     2     3     3
 -0.0016058993     4     2     3     7
 -0.0049841510     4     2     3     8
 0.0045256375     4     2     5     5
 0.0002197127     4     2     6     1
 0.0594273083     4     2     6     4
 -0.0109307182     4     2     6     6
 0.0087266365     4     2     7     3
 -0.0124914521     4     2     7     7
 -0.0081379597     4     2     7     8
 0.0275252657     4     2     8     3
 -0.0024431101     4     2     8     7
 -0.0055167292     4     2     8     8
 0.0012594917     4     3     1     7
 0.0048897409     4     3     1     8
 -0.0102749208     4     3     2     7
 -0.0324630815     4     3     2     8
 -0.0106113898     4     3     3     1
 -0.0018599176     4     3     3     2
 -0.5619135233     4     3     3     4
 -0.0300436701     4     3     3     6
 0.0077183855     4     3     6     7
 0.0002520481     4     3     6     8
 -0.0020410489     4     3     7     1
 -0.0087266365     4     3     7     2
 -0.0759158975     4     3     7     4
 0.0002455861     4     3     7     6
 0.0024703189     4     3     8     1
 -0.0275252657     4     3     8     2
 -0.0399018068     4     3     8     4
 -0.0029934406     4     3     8     6
 0.9498457111     4     4     1     1
 0.0359577261     4     4     1     2
 -0.0089525611     4     4     1     6
 0.0359577261     4     4     2     1
 0.5508190253     4     4     2     2
 -0.0594273083     4     4     2     6
 0.5619135233     4     4     3     3
 0.0759158975     4     4     3     7
 0.0399018068     4     4     3     8
 0.6064059447     4     4     5     5
 -0.0089525611     4     4     6     1
 -0.0594273083     4     4     6     2
 0.2925397790     4     4     6     6
 0.0759158975     4     4     7     3
 0.2739703534     4     4     7     7
 0.0531617313     4     4     7     8
 0.0399018068     4     4     8     3
 0.0531617313     4     4     8     7
 0.3770423780     4     4     8     8
 -0.0137435071     4     5     5     1
 -0.0045256375     4     5     5     2
 -0.6064059447     4     5     5     4
 -0.0362231219     4     5     5     6
 0.0654864584     4     6     1     1
 0.0068112221     4     6     1     2
 0.0089525611     4     6     1     4
 0.0063726084     4     6     2     1
 0.0272918026     4     6     2     2
 0.0594273083     4     6     2     4
 0.0300436701     4     6     3     3
 0.0069344557     4     6     3     7
 0.0024732171     4     6     3     8
 0.0362231219     4     6     5     5
 -0.0040155680     4     6     6     1
 0.0109307182     4     6     6     2
 -0.2925397790     4     6     6     4
 -0.0002455861     4     6     7     3
 0.0077106183     4     6     7     7
 0.0247171592     4     6     7     8
 0.0029934406     4     6     8     3
 0.0011350605     4     6     8     7
 0.0097226024     4     6     8     8
 -0.0012594917     4     7     1     3
 0.0016868664     4     7     1     8
 0.0102749208     4     7     2     3
 -0.0050521950     4     7     2     8
 -0.0031182709     4     7     3     1
 0.0016058993     4     7     3     2
 -0.0759158975     4     7     3     4
 -0.0069344557     4     7     3     6
 -0.0077183855     4     7     6     3
 0.0236517468     4     7     6     8
 -0.0027144996     4     7     7     1
 0.0124914521     4     7     7     2
 -0.2739703534     4     7     7     4
 -0.0077106183     4     7     7     6
 -0.0011281080     4     7     8     1
 0.0024431101     4     7     8     2
 -0.0531617313     4     7     8     4
 -0.0011350605     4     7     8     6
 -0.0048897409     4     8     1     3
 -0.0016868664     4     8     1     7
 0.0324630815     4     8     2     3
 0.0050521950     4     8     2     7
 -0.0023612354     4     8     3     1
 0.0049841510     4     8     3     2
 -0.0399018068     4     8     3     4
 -0.0024732171     4     8     3     6
 -0.0002520481     4     8     6     3
 -0.0236517468     4     8     6     7
 -0.0028541627     4     8     7     1
 0.0081379597     4     8     7     2
 -0.0531617313     4     8     7     4
 -0.0247171592     4     8     7     6
 -0.0028010449     4     8     8     1
 0.0055167292     4     8     8     2
 -0.3770423780     4     8     8     4
 -0.0097226024     4     8     8     6
 -0.9969381523     5     1     1     5
 -0.0408593606     5     1     2     5
 -0.0137435071     5     1     4     5
 0.0086985857     5     1     6     5
 -0.0408593606     5     2     1     5
 -0.5782789915     5     2     2     5
 -0.0045256375     5     2     4     5
 0.0576725568     5     2     6     5
 -0.5855425296     5     3     3     5
 -0.0783358580     5     3     7     5
 -0.0315977924     5     3     8     5
 -0.0137435071     5     4     1     5
 -0.0045256375     5     4     2     5
 -0.6064059447     5     4     4     5
 -0.0362231219     5     4     6     5
 0.9969381523     5     5     1     1
 0.0408593606     5     5     1     2
 0.0137435071     5     5     1     4
 -0.0086985857     5     5     1     6
 0.0408593606     5     5     2     1
 0.5782789915     5     5     2     2
 0.0045256375     5     5     2     4
 -0.0576725568     5     5     2     6
 0.5855425296     5     5     3     3
 0.0783358580     5     5     3     7
 0.0315977924     5     5     3     8
 0.0137435071     5     5     4     1
 0.0045256375     5     5     4     2
 0.6064059447     5     5     4     4
 0.0362231219     5     5     4     6
 -0.0086985857     5     5     6     1
 -0.0576725568     5     5     6     2
 0.0362231219     5     5     6     4
 0.3020653646     5     5     6     6
 0.0783358580     5     5     7     3
 0.2791298646     5     5     7     7
 0.0586489571     5     5     7     8
 0.0315977924     5     5     8     3
 0.0586489571     5     5     8     7
 0.3940108728     5     5     8     8
 0.0086985857     5     6     1     5
 0.0576725568     5     6     2     5
 -0.0362231219     5     6     4     5
 -0.3020653646     5     6     6     5
 -0.0783358580     5     7     3     5
 -0.2791298646     5     7     7     5
 -0.0586489571     5     7     8     5
 -0.0315977924     5     8     3     5
 -0.0586489571     5     8     7     5
 -0.3940108728     5     8     8     5
 0.1282595243     6     1     1     2
 -0.0654864584     6     1     1     4
 -0.3484701452     6     1     1     6
 0.0011412950     6     1     2     2
 -0.0068112221     6     1     2     4
 -0.0018259570     6     1     2     6
 -0.0044713336     6     1     3     3
 -0.0043554105     6     1     3     7
 -0.0026241385     6     1     3     8
 0.0002197127     6     1     4     2
 -0.0089525611     6     1     4     4
 -0.0040155680     6     1     4     6
 -0.0086985857     6     1     5     5
 -0.0021544337     6     1     7     3
 -0.0017618096     6     1     7     7
 -0.0008374857     6     1     7     8
 -0.0030292735     6     1     8     3
 -0.0017507153     6     1     8     7
 -0.0005875503     6     1     8     8
 -0.1282595243     6     2     1     1
 -0.0063726084     6     2     1     4
 -0.0018259570     6     2     1     6
 -0.0011412950     6     2     2     1
 -0.0272918026     6     2     2     4
 -0.3031462904     6     2     2     6
 -0.0594683773     6     2     3     3
 0.0215958284     6     2     3     7
 -0.0016987419     6     2     3     8
 -0.0002197127     6     2     4     1
 -0.0594273083     6     2     4     4
 0.0109307182     6     2     4     6
 -0.0576725568     6     2     5     5
 -0.0119880058     6     2     7     3
 -0.0080655936     6     2     7     7
 -0.0071073983     6     2     7     8
 -0.0011679862     6     2     8     3
 -0.0123146837     6     2     8     7
 -0.0249698462     6     2     8     8
 -0.0021148604     6     3     1     7
 0.0004136085     6     3     1     8
 0.0340392707     6     3     2     7
 0.0001072143     6     3     2     8
 0.0044713336     6     3     3     1
 0.0594683773     6     3     3     2
 -0.0300436701     6     3     3     4
 -0.3062772909     6     3     3     6
 -0.0077183855     6     3     4     7
 -0.0002520481     6     3     4     8
 0.0021544337     6     3     7     1
 0.0119880058     6     3     7     2
 -0.0069344557     6     3     7     4
 -0.0255394536     6     3     7     6
 0.0030292735     6     3     8     1
 0.0011679862     6     3     8     2
 -0.0024732171     6     3     8     4
 0.0131884647     6     3     8     6
 0.0654864584     6     4     1     1
 0.0063726084     6     4     1     2
 -0.0040155680     6     4     1     6
 0.0068112221     6     4     2     1
 0.0272918026     6     4     2     2
 0.0109307182     6     4     2     6
 0.0300436701     6     4     3     3
 -0.0002455861     6     4     3     7
 0.0029934406     6     4     3     8
 0.0089525611     6     4     4     1
 0.0594273083     6     4     4     2
 -0.2925397790     6     4     4     6
 0.0362231219     6     4     5     5
 0.0069344557     6     4     7     3
 0.0077106183     6     4     7     7
 0.0011350605     6     4     7     8
 0.0024732171     6     4     8     3
 0.0247171592     6     4     8     7
 0.0097226024     6     4     8     8
 0.0086985857     6     5     5     1
 0.0576725568     6     5     5     2
 -0.0362231219     6     5     5     4
 -0.3020653646     6     5     5     6
 0.3484701452     6     6     1     1
 0.0018259570     6     6     1     2
 0.0040155680     6     6     1     4
 0.0018259570     6     6     2     1
 0.3031462904     6     6     2     2
 -0.0109307182     6     6     2     4
 0.3062772909     6     6     3     3
 0.0255394536     6     6     3     7
 -0.0131884647     6     6     3     8
 0.0040155680     6     6     4     1
 -0.0109307182     6     6     4     2
 0.2925397790     6     6     4     4
 0.3020653646     6     6     5     5
 0.0255394536     6     6     7     3
 0.1879764971     6     6     7     7
 0.0243619458     6     6     7     8
 -0.0131884647     6     6     8     3
 0.0243619458     6     6     8     7
 0.2666123776     6     6     8     8
 0.0021148604     6     7     1     3
 0.0009115419     6     7     1     8
 -0.0340392707     6     7     2     3
 0.0052849321     6     7     2     8
 0.0043554105     6     7     3     1
 -0.0215958284     6     7     3     2
 0.0002455861     6     7     3     4
 -0.0255394536     6     7     3     6
 0.0077183855     6     7     4     3
 -0.0236517468     6     7     4     8
 0.0017618096     6     7     7     1
 0.0080655936     6     7     7     2
 -0.0077106183     6     7     7     4
 -0.1879764971     6     7     7     6
 0.0017507153     6     7     8     1
 0.0123146837     6     7     8     2
 -0.0247171592     6     7     8     4
 -0.0243619458     6     7     8     6
 -0.0004136085     6     8     1     3
 -0.0009115419     6     8     1     7
 -0.0001072143     6     8     2     3
 -0.0052849321     6     8     2     7
 0.0026241385     6     8     3     1
 0.0016987419     6     8     3     2
 -0.0029934406     6     8     3     4
 0.0131884647     6     8     3     6
 0.0002520481     6     8     4     3
 0.0236517468     6     8     4     7
 0.0008374857     6     8     7     1
 0.0071073983     6     8     7     2
 -0.0011350605     6     8     7     4
 -0.0243619458     6     8     7     6
 0.0005875503     6     8     8     1
 0.0249698462     6     8     8     2
 -0.0097226024     6     8     8     4
 -0.2666123776     6     8     8     6
 -0.1512148539     7     1     1     3
 -0.3258961177     7     1     1     7
 -0.0991565837     7     1     1     8
 -0.0122857727     7     1     2     3
 -0.0048079097     7     1     2     7
 -0.0037802538     7     1     2     8
 -0.0026691531     7     1     3     2
 0.0012594917     7     1     3     4
 -0.0021148604     7     1     3     6
 -0.0020410489     7     1     4     3
 -0.0027144996     7     1     4     7
 -0.0028541627     7     1     4     8
 0.0021544337     7     1     6     3
 0.0017618096     7     1     6     7
 0.0008374857     7     1     6     8
 0.0004422761     7     1     8     2
 -0.0016868664     7     1     8     4
 -0.0009115419     7     1     8     6
 -0.0086267067     7     2     1     3
 -0.0048079097     7     2     1     7
 -0.0042633329     7     2     1     8
 -0.0609033168     7     2     2     3
 -0.2844231549     7     2     2     7
 -0.0607407934     7     2     2     8
 0.0026691531     7     2     3     1
 -0.0102749208     7     2     3     4
 0.0340392707     7     2     3     6
 -0.0087266365     7     2     4     3
 0.0124914521     7     2     4     7
 0.0081379597     7     2     4     8
 0.0119880058     7     2     6     3
 0.0080655936     7     2     6     7
 0.0071073983     7     2     6     8
 -0.0004422761     7     2     8     1
 0.0050521950     7     2     8     4
 -0.0052849321     7     2     8     6
 0.1512148539     7     3     1     1
 0.0086267067     7     3     1     2
 0.0031182709     7     3     1     4
 -0.0043554105     7     3     1     6
 0.0122857727     7     3     2     1
 0.0609033168     7     3     2     2
 -0.0016058993     7     3     2     4
 0.0215958284     7     3     2     6
 -0.2704876628     7     3     3     7
 -0.0463809788     7     3     3     8
 0.0020410489     7     3     4     1
 0.0087266365     7     3     4     2
 0.0759158975     7     3     4     4
 -0.0002455861     7     3     4     6
 0.0783358580     7     3     5     5
 -0.0021544337     7     3     6     1
 -0.0119880058     7     3     6     2