&FCI NORB= 14,NELEC= 10,MS2=0,
 ORBSYM=1,1,1,1,1,1,1,1,1,1,1,1,1,1
 ISYM=1,
&END
 0.9964334166     1     1     2     2
 -0.0403445253     1     1     2     3
 0.0673799519     1     1     2     4
 -0.1081224128     1     1     2     6
 0.0788372357     1     1     2     7
 0.0318337755     1     1     2     8
 0.0673143662     1     1     2     9
 0.0311866052     1     1     2    10
 -0.0583296980     1     1     2    12
 -0.0825754241     1     1     2    13
 -0.0403445253     1     1     3     2
 0.8752802638     1     1     3     3
 -0.0798956613     1     1     3     4
 0.0806934012     1     1     3     6
 0.1366523956     1     1     3     7
 -0.0407290960     1     1     3     8
 0.0030879626     1     1     3     9
 0.2003382237     1     1     3    10
 0.0382245059     1     1     3    12
 -0.1260652217     1     1     3    13
 0.0673799519     1     1     4     2
 -0.0798956613     1     1     4     3
 0.8135283843     1     1     4     4
 0.2194149876     1     1     4     6
 0.0524317103     1     1     4     7
 -0.0913994576     1     1     4     8
 0.0459928330     1     1     4     9
 -0.1562587253     1     1     4    10
 0.0580406943     1     1     4    12
 -0.1515098874     1     1     4    13
 1.0088479325     1     1     5     5
 0.2272530721     1     1     5    11
 0.1915943589     1     1     5    14
 -0.1081224128     1     1     6     2
 0.0806934012     1     1     6     3
 0.2194149876     1     1     6     4
 0.4522541157     1     1     6     6
 0.0344849201     1     1     6     7
 -0.1420244892     1     1     6     8
 -0.0044850955     1     1     6     9
 -0.0532932290     1     1     6    10
 0.0831884725     1     1     6    12
 -0.0991678564     1     1     6    13
 0.0788372357     1     1     7     2
 0.1366523956     1     1     7     3
 0.0524317103     1     1     7     4
 0.0344849201     1     1     7     6
 0.3128124251     1     1     7     7
 -0.0503625980     1     1     7     8
 0.0481679933     1     1     7     9
 0.0893377286     1     1     7    10
 0.0046189371     1     1     7    12
 -0.1293832760     1     1     7    13
 0.0318337755     1     1     8     2
 -0.0407290960     1     1     8     3
 -0.0913994576     1     1     8     4
 -0.1420244892     1     1     8     6
 -0.0503625980     1     1     8     7
 0.3142187706     1     1     8     8
 -0.0120254333     1     1     8     9
 0.0149664639     1     1     8    10
 -0.0184010970     1     1     8    12
 0.0430405474     1     1     8    13
 0.0673143662     1     1     9     2
 0.0030879626     1     1     9     3
 0.0459928330     1     1     9     4
 -0.0044850955     1     1     9     6
 0.0481679933     1     1     9     7
 -0.0120254333     1     1     9     8
 0.3606488229     1     1     9     9
 0.0189892328     1     1     9    10
 -0.0063738437     1     1     9    12
 -0.0484343918     1     1     9    13
 0.0311866052     1     1    10     2
 0.2003382237     1     1    10     3
 -0.1562587253     1     1    10     4
 -0.0532932290     1     1    10     6
 0.0893377286     1     1    10     7
 0.0149664639     1     1    10     8
 0.0189892328     1     1    10     9
 0.4922063670     1     1    10    10
 -0.0243249725     1     1    10    12
 -0.0149839363     1     1    10    13
 0.2272530721     1     1    11     5
 0.4319223000     1     1    11    11
 0.1070098352     1     1    11    14
 -0.0583296980     1     1    12     2
 0.0382245059     1     1    12     3
 0.0580406943     1     1    12     4
 0.0831884725     1     1    12     6
 0.0046189371     1     1    12     7
 -0.0184010970     1     1    12     8
 -0.0063738437     1     1    12     9
 -0.0243249725     1     1    12    10
 0.3594708628     1     1    12    12
 -0.0356344887     1     1    12    13
 -0.0825754241     1     1    13     2
 -0.1260652217     1     1    13     3
 -0.1515098874     1     1    13     4
 -0.0991678564     1     1    13     6
 -0.1293832760     1     1    13     7
 0.0430405474     1     1    13     8
 -0.0484343918     1     1    13     9
 -0.0149839363     1     1    13    10
 -0.0356344887     1     1    13    12
 0.4728228300     1     1    13    13
 0.1915943589     1     1    14     5
 0.1070098352     1     1    14    11
 0.4277995064     1     1    14    14
 -0.9964334166     1     2     2     1
 -0.0055728021     1     2     2     3
 0.0020529895     1     2     2     4
 -0.0001257536     1     2     2     6
 -0.0018570741     1     2     2     7
 0.0002469263     1     2     2     8
 -0.0002281352     1     2     2     9
 -0.0044224857     1     2     2    10
 -0.0001265441     1     2     2    12
 0.0019129438     1     2     2    13
 0.0403445253     1     2     3     1
 -0.0322795224     1     2     3     3
 0.0047581904     1     2     3     4
 -0.0042497855     1     2     3     6
 -0.0104533954     1     2     3     7
 0.0033378413     1     2     3     8
 -0.0025328510     1     2     3     9
 -0.0178396363     1     2     3    10
 -0.0021229718     1     2     3    12
 0.0122055540     1     2     3    13
 -0.0673799519     1     2     4     1
 0.0041949058     1     2     4     3
 -0.0291681789     1     2     4     4
 -0.0149555107     1     2     4     6
 -0.0026069857     1     2     4     7
 0.0078611414     1     2     4     8
 -0.0026058132     1     2     4     9
 0.0124159226     1     2     4    10
 -0.0062453975     1     2     4    12
 0.0115528196     1     2     4    13
 -0.0428544932     1     2     5     5
 -0.0186406490     1     2     5    11
 -0.0167962055     1     2     5    14
 0.1081224128     1     2     6     1
 -0.0028372012     1     2     6     3
 -0.0127652170     1     2     6     4
 -0.0097084476     1     2     6     6
 -0.0034689776     1     2     6     7
 0.0053050045     1     2     6     8
 -0.0017228368     1     2     6     9
 0.0037548839     1     2     6    10
 -0.0040194127     1     2     6    12
 0.0088053464     1     2     6    13
 -0.0788372357     1     2     7     1
 -0.0086023096     1     2     7     3
 -0.0018565749     1     2     7     4
 -0.0036039460     1     2     7     6
 -0.0037309463     1     2     7     7
 0.0022504848     1     2     7     8
 -0.0011534549     1     2     7     9
 -0.0042130592     1     2     7    10
 -0.0014808940     1     2     7    12
 0.0057722741     1     2     7    13
 -0.0318337755     1     2     8     1
 0.0022868188     1     2     8     3
 0.0063597658     1     2     8     4
 0.0050839087     1     2     8     6
 0.0020819348     1     2     8     7
 -0.0029442436     1     2     8     8
 0.0011004310     1     2     8     9
 -0.0014982173     1     2     8    10
 0.0021044222     1     2     8    12
 -0.0048998111     1     2     8    13
 -0.0673143662     1     2     9     1
 -0.0020104742     1     2     9     3
 -0.0017849976     1     2     9     4
 -0.0014777753     1     2     9     6
 -0.0010688633     1     2     9     7
 0.0010118765     1     2     9     8
 -0.0005650328     1     2     9     9
 0.0000794796     1     2     9    10
 -0.0005152001     1     2     9    12
 0.0017505538     1     2     9    13
 -0.0311866052     1     2    10     1
 -0.0131119383     1     2    10     3
 0.0097063676     1     2    10     4
 0.0028636936     1     2    10     6
 -0.0035683386     1     2    10     7
 -0.0011768409     1     2    10     8
 0.0002697841     1     2    10     9
 -0.0120752634     1     2    10    10
 0.0007066260     1     2    10    12
 0.0013756542     1     2    10    13
 -0.0140097544     1     2    11     5
 -0.0078676647     1     2    11    11
 -0.0067537147     1     2    11    14
 0.0583296980     1     2    12     1
 -0.0012652824     1     2    12     3
 -0.0044689205     1     2    12     4
 -0.0034083481     1     2    12     6
 -0.0012067518     1     2    12     7
 0.0018565400     1     2    12     8
 -0.0004998034     1     2    12     9
 0.0007873450     1     2    12    10
 -0.0014317607     1     2    12    12
 0.0030108790     1     2    12    13
 0.0825754241     1     2    13     1
 0.0090649205     1     2    13     3
 0.0081077725     1     2    13     4
 0.0079286947     1     2    13     6
 0.0052283056     1     2    13     7
 -0.0046167730     1     2    13     8
 0.0017440261     1     2    13     9
 0.0017679574     1     2    13    10
 0.0032299448     1     2    13    12
 -0.0096069101     1     2    13    13
 -0.0121390874     1     2    14     5
 -0.0064657096     1     2    14    11
 -0.0055823924     1     2    14    14
 0.0403445253     1     3     2     1
 0.0055728021     1     3     2     2
 0.0005648951     1     3     2     4
 -0.0012008044     1     3     2     6
 -0.0011521271     1     3     2     7
 0.0008667216     1     3     2     8
 -0.0003868803     1     3     2     9
 -0.0036633902     1     3     2    10
 -0.0007364457     1     3     2    12
 0.0023777517     1     3     2    13
 -0.8752802638     1     3     3     1
 0.0322795224     1     3     3     2
 0.0044713770     1     3     3     4
 -0.0037203601     1     3     3     6
 0.0038622543     1     3     3     7
 0.0010680254     1     3     3     8
 0.0004219584     1     3     3     9
 0.0003374421     1     3     3    10
 -0.0022246854     1     3     3    12
 -0.0054553609     1     3     3    13
 0.0798956613     1     3     4     1
 -0.0041949058     1     3     4     2
 0.0059165320     1     3     4     4
 0.0055124328     1     3     4     6
 0.0009146529     1     3     4     7
 -0.0038381244     1     3     4     8
 0.0000554515     1     3     4     9
 -0.0020779565     1     3     4    10
 -0.0001714858     1     3     4    12
 -0.0024858693     1     3     4    13
 0.0099462948     1     3     5     5
 0.0049664066     1     3     5    11
 0.0015974722     1     3     5    14
 -0.0806934012     1     3     6     1
 0.0028372012     1     3     6     2
 0.0035824166     1     3     6     4
 0.0008798707     1     3     6     6
 0.0000260126     1     3     6     7
 -0.0010284901     1     3     6     8
 0.0007586656     1     3     6     9
 -0.0016834318     1     3     6    10
 -0.0005443766     1     3     6    12
 -0.0011209728     1     3     6    13
 -0.1366523956     1     3     7     1
 0.0086023096     1     3     7     2
 0.0020665487     1     3     7     4
 -0.0018772223     1     3     7     6
 0.0035851746     1     3     7     7
 0.0002721929     1     3     7     8
 0.0012184731     1     3     7     9
 0.0018968703     1     3     7    10
 -0.0005450350     1     3     7    12
 -0.0030532657     1     3     7    13
 0.0407290960     1     3     8     1
 -0.0022868188     1     3     8     2
 -0.0019616854     1     3     8     4
 -0.0001173211     1     3     8     6
 -0.0004156529     1     3     8     7
 -0.0006800147     1     3     8     8
 0.0001985446     1     3     8     9
 -0.0002217268     1     3     8    10
 0.0006584116     1     3     8    12
 0.0006189719     1     3     8    13
 -0.0030879626     1     3     9     1
 0.0020104742     1     3     9     2
 0.0004360128     1     3     9     4
 0.0005466069     1     3     9     6
 0.0015171138     1     3     9     7
 0.0001445014     1     3     9     8
 0.0005456776     1     3     9     9
 0.0037522768     1     3     9    10
 0.0002354136     1     3     9    12
 -0.0034816306     1     3     9    13
 -0.2003382237     1     3    10     1
 0.0131119383     1     3    10     2
 0.0002258906     1     3    10     4
 -0.0045875232     1     3    10     6
 0.0036339752     1     3    10     7
 0.0012714185     1     3    10     8
 0.0038025208     1     3    10     9
 0.0037343899     1     3    10    10
 -0.0032133489     1     3    10    12
 -0.0032282893     1     3    10    13
 0.0030938525     1     3    11     5
 0.0004256438     1     3    11    11
 0.0015527535     1     3    11    14
 -0.0382245059     1     3    12     1
 0.0012652824     1     3    12     2
 0.0011068765     1     3    12     4
 0.0006796667     1     3    12     6
 0.0007980335     1     3    12     7
 -0.0003969231     1     3    12     8
 0.0005849371     1     3    12     9
 -0.0024354167     1     3    12    10
 0.0004807199     1     3    12    12
 -0.0017542964     1     3    12    13
 0.1260652217     1     3    13     1
 -0.0090649205     1     3    13     2
 -0.0037014220     1     3    13     4
 0.0008163448     1     3    13     6
 -0.0029712708     1     3    13     7
 0.0002977848     1     3    13     8
 -0.0030808579     1     3    13     9
 -0.0008218717     1     3    13    10
 0.0003634828     1     3    13    12
 0.0048910805     1     3    13    13
 0.0031469906     1     3    14     5
 0.0030634291     1     3    14    11
 0.0036745270     1     3    14    14
 -0.0673799519     1     4     2     1
 -0.0020529895     1     4     2     2
 -0.0005648951     1     4     2     3
 -0.0011458924     1     4     2     6
 -0.0006019559     1     4     2     7
 0.0009744275     1     4     2     8
 -0.0006599219     1     4     2     9
 0.0019118332     1     4     2    10
 -0.0013972208     1     4     2    12
 0.0027487605     1     4     2    13
 0.0798956613     1     4     3     1
 -0.0047581904     1     4     3     2
 -0.0044713770     1     4     3     3
 0.0016914995     1     4     3     6
 -0.0012816961     1     4     3     7
 -0.0017473278     1     4     3     8
 -0.0003282742     1     4     3     9
 -0.0023094728     1     4     3    10
 -0.0013269225     1     4     3    12
 0.0015061607     1     4     3    13
 -0.8135283843     1     4     4     1
 0.0291681789     1     4     4     2
 -0.0059165320     1     4     4     3
 -0.0053877166     1     4     4     6
 0.0029491945     1     4     4     7
 0.0011031452     1     4     4     8
 0.0048055692     1     4     4     9
 0.0022368311     1     4     4    10
 -0.0021084084     1     4     4    12
 -0.0015248802     1     4     4    13
 -0.0074912546     1     4     5     5
 -0.0022216240     1     4     5    11
 -0.0034178832     1     4     5    14
 -0.2194149876     1     4     6     1
 0.0127652170     1     4     6     2
 -0.0035824166     1     4     6     3
 -0.0063760081     1     4     6     6
 0.0003536255     1     4     6     7
 0.0024325371     1     4     6     8
 0.0019750127     1     4     6     9
 0.0016028075     1     4     6    10
 -0.0026509219     1     4     6    12
 0.0012673340     1     4     6    13
 -0.0524317103     1     4     7     1
 0.0018565749     1     4     7     2
 -0.0020665487     1     4     7     3
 -0.0012515509     1     4     7     6
 -0.0008033390     1     4     7     7
 0.0006041827     1     4     7     8
 0.0004043559     1     4     7     9
 -0.0015051653     1     4     7    10
 -0.0004954967     1     4     7    12
 0.0004298133     1     4     7    13
 0.0913994576     1     4     8     1
 -0.0063597658     1     4     8     2
 0.0019616854     1     4     8     3
 0.0035703898     1     4     8     6
 0.0003122951     1     4     8     7
 -0.0032374690     1     4     8     8
 -0.0013902404     1     4     8     9
 0.0000569422     1     4     8    10
 0.0019564367     1     4     8    12
 -0.0012181107     1     4     8    13
 -0.0459928330     1     4     9     1
 0.0017849976     1     4     9     2
 -0.0004360128     1     4     9     3
 -0.0009805433     1     4     9     6
 0.0001936928     1     4     9     7
 -0.0000597029     1     4     9     8
 -0.0008483645     1     4     9     9
 0.0002356178     1     4     9    10
 -0.0018251132     1     4     9    12
 0.0005595823     1     4     9    13
 0.1562587253     1     4    10     1
 -0.0097063676     1     4    10     2
 -0.0002258906     1     4    10     3
 0.0033910413     1     4    10     6
 -0.0028589182     1     4    10     7
 -0.0007046674     1     4    10     8
 -0.0019994910     1     4    10     9
 -0.0015823172     1     4    10    10
 0.0020002665     1     4    10    12
 0.0035439761     1     4    10    13
 -0.0030965445     1     4    11     5
 -0.0036752656     1     4    11    11
 -0.0007885797     1     4    11    14
 -0.0580406943     1     4    12     1
 0.0044689205     1     4    12     2
 -0.0011068765     1     4    12     3
 -0.0022565228     1     4    12     6
 0.0010215307     1     4    12     7
 0.0011886145     1     4    12     8
 -0.0004519412     1     4    12     9
 0.0025960493     1     4    12    10
 -0.0017331354     1     4    12    12
 -0.0005259485     1     4    12    13
 0.1515098874     1     4    13     1
 -0.0081077725     1     4    13     2
 0.0037014220     1     4    13     3
 0.0035245526     1     4    13     6
 -0.0008776786     1     4    13     7
 -0.0011626493     1     4    13     8
 -0.0013646954     1     4    13     9
 0.0017832587     1     4    13    10
 0.0014642192     1     4    13    12
 0.0014186402     1     4    13    13
 -0.0020840661     1     4    14     5
 0.0002144599     1     4    14    11
 -0.0016220905     1     4    14    14
 -0.0034870497     1     5     2    11
 -0.0036825136     1     5     2    14
 0.0016919488     1     5     3    11
 -0.0017955885     1     5     3    14
 0.0011330745     1     5     4    11
 -0.0012170900     1     5     4    14
 -1.0088479325     1     5     5     1
 0.0428544932     1     5     5     2
 -0.0099462948     1     5     5     3
 0.0074912546     1     5     5     4
 -0.0079453217     1     5     5     6
 0.0038705635     1     5     5     7
 0.0036210997     1     5     5     8
 0.0071446127     1     5     5     9
 -0.0004666288     1     5     5    10
 -0.0060763714     1     5     5    12
 -0.0064327236     1     5     5    13
 -0.0006799326     1     5     6    11
 -0.0009346078     1     5     6    14
 0.0009659114     1     5     7    11
 0.0010382879     1     5     7    14
 -0.0009040945     1     5     8    11
 -0.0002780980     1     5     8    14
 -0.0005467314     1     5     9    11
 -0.0007935686     1     5     9    14
 -0.0002979354     1     5    10    11
 -0.0004294869     1     5    10    14
 -0.2272530721     1     5    11     1
 0.0140097544     1     5    11     2
 -0.0030938525     1     5    11     3
 0.0030965445     1     5    11     4
 -0.0049831167     1     5    11     6
 0.0022961077     1     5    11     7
 0.0011562005     1     5    11     8
 0.0024867234     1     5    11     9
 -0.0003749170     1     5    11    10
 -0.0025862301     1     5    11    12
 -0.0019367486     1     5    11    13
 0.0004386893     1     5    12    11
 0.0003684930     1     5    12    14
 0.0001035816     1     5    13    11
 0.0000296097     1     5    13    14
 -0.1915943589     1     5    14     1
 0.0121390874     1     5    14     2
 -0.0031469906     1     5    14     3
 0.0020840661     1     5    14     4
 -0.0033252614     1     5    14     6
 0.0034810018     1     5    14     7
 0.0006838935     1     5    14     8
 0.0022795180     1     5    14     9
 0.0004348744     1     5    14    10
 -0.0017017117     1     5    14    12
 -0.0038355264     1     5    14    13
 0.1081224128     1     6     2     1
 0.0001257536     1     6     2     2
 0.0012008044     1     6     2     3
 0.0011458924     1     6     2     4
 0.0001388857     1     6     2     7
 0.0002112203     1     6     2     8
 -0.0002333579     1     6     2     9
 0.0009082087     1     6     2    10
 -0.0006016692     1     6     2    12
 0.0008247593     1     6     2    13
 -0.0806934012     1     6     3     1
 0.0042497855     1     6     3     2
 0.0037203601     1     6     3     3
 -0.0016914995     1     6     3     4
 0.0019295606     1     6     3     7
 -0.0009294753     1     6     3     8
 0.0002203674     1     6     3     9
 0.0029580570     1     6     3    10
 -0.0012551347     1     6     3    12
 -0.0019576191     1     6     3    13
 -0.2194149876     1     6     4     1
 0.0149555107     1     6     4     2
 -0.0055124328     1     6     4     3
 0.0053877166     1     6     4     4
 0.0016232294     1     6     4     7
 -0.0011820648     1     6     4     8
 0.0030043237     1     6     4     9
 -0.0018504204     1     6     4    10
 -0.0004057100     1     6     4    12
 -0.0022875900     1     6     4    13
 0.0079453217     1     6     5     5
 0.0043371017     1     6     5    11
 0.0023784106     1     6     5    14
 -0.4522541157     1     6     6     1
 0.0097084476     1     6     6     2
 -0.0008798707     1     6     6     3
 0.0063760081     1     6     6     4
 0.0017049159     1     6     6     7
 -0.0007574298     1     6     6     8
 0.0020968566     1     6     6     9
 -0.0007139686     1     6     6    10
 -0.0002639850     1     6     6    12
 -0.0030696756     1     6     6    13
 -0.0344849201     1     6     7     1
 0.0036039460     1     6     7     2
 0.0018772223     1     6     7     3
 0.0012515509     1     6     7     4
 0.0016234507     1     6     7     7
 -0.0003104608     1     6     7     8
 0.0009009932     1     6     7     9
 0.0009685070     1     6     7    10
 0.0000604389     1     6     7    12
 -0.0023748698     1     6     7    13
 0.1420244892     1     6     8     1
 -0.0050839087     1     6     8     2
 0.0001173211     1     6     8     3
 -0.0035703898     1     6     8     4
 -0.0008629332     1     6     8     7
 -0.0008285323     1     6     8     8
 -0.0012463378     1     6     8     9
 0.0005435029     1     6     8    10
 0.0004460599     1     6     8    12
 0.0015949060     1     6     8    13
 0.0044850955     1     6     9     1
 0.0014777753     1     6     9     2
 -0.0005466069     1     6     9     3
 0.0009805433     1     6     9     4
 0.0004557843     1     6     9     7
 -0.0002509997     1     6     9     8
 -0.0002955285     1     6     9     9
 0.0003790128     1     6     9    10
 -0.0008356245     1     6     9    12
 -0.0006809601     1     6     9    13
 0.0532932290     1     6    10     1
 -0.0028636936     1     6    10     2
 0.0045875232     1     6    10     3
 -0.0033910413     1     6    10     4
 0.0003446658     1     6    10     7
 0.0002448955     1     6    10     8
 -0.0003565534     1     6    10     9
 0.0037549369     1     6    10    10
 0.0001897936     1     6    10    12
 0.0008131836     1     6    10    13
 0.0049831167     1     6    11     5
 0.0009696131     1     6    11    11
 0.0024679424     1     6    11    14
 -0.0831884725     1     6    12     1
 0.0034083481     1     6    12     2
 -0.0006796667     1     6    12     3
 0.0022565228     1     6    12     4
 0.0010990097     1     6    12     7
 -0.0000387325     1     6    12     8
 0.0001017537     1     6    12     9
 0.0003165268     1     6    12    10
 -0.0004541671     1     6    12    12
 -0.0017018030     1     6    12    13
 0.0991678564     1     6    13     1
 -0.0079286947     1     6    13     2
 -0.0008163448     1     6    13     3
 -0.0035245526     1     6    13     4
 -0.0028225427     1     6    13     7
 0.0007192821     1     6    13     8
 -0.0020641981     1     6    13     9
 0.0001207317     1     6    13    10
 0.0000387407     1     6    13    12
 0.0048239784     1     6    13    13
 0.0033252614     1     6    14     5
 0.0026321768     1     6    14    11
 0.0014644606     1     6    14    14
 -0.0788372357     1     7     2     1
 0.0018570741     1     7     2     2
 0.0011521271     1     7     2     3
 0.0006019559     1     7     2     4
 -0.0001388857     1     7     2     6
 0.0001599310     1     7     2     8
 -0.0000860578     1     7     2     9
 -0.0006502047     1     7     2    10
 -0.0002639436     1     7     2    12
 0.0005224226     1     7     2    13
 -0.1366523956     1     7     3     1
 0.0104533954     1     7     3     2
 -0.0038622543     1     7     3     3
 0.0012816961     1     7     3     4
 -0.0019295606     1     7     3     6
 0.0006960603     1     7     3     8
 -0.0003100914     1     7     3     9
 -0.0017995711     1     7     3    10
 -0.0013655839     1     7     3    12
 -0.0000669255     1     7     3    13
 -0.0524317103     1     7     4     1
 0.0026069857     1     7     4     2
 -0.0009146529     1     7     4     3
 -0.0029491945     1     7     4     4
 -0.0016232294     1     7     4     6
 0.0002917956     1     7     4     8
 0.0002109915     1     7     4     9
 0.0013758036     1     7     4    10
 -0.0015437040     1     7     4    12
 0.0013310084     1     7     4    13
 -0.0038705635     1     7     5     5
 -0.0013222271     1     7     5    11
 -0.0024683386     1     7     5    14
 -0.0344849201     1     7     6     1
 0.0034689776     1     7     6     2
 -0.0000260126     1     7     6     3
 -0.0003536255     1     7     6     4
 -0.0017049159     1     7     6     6
 0.0005543628     1     7     6     8
 0.0004440537     1     7     6     9
 0.0006228601     1     7     6    10
 -0.0010399708     1     7     6    12
 0.0004512905     1     7     6    13
 -0.3128124251     1     7     7     1
 0.0037309463     1     7     7     2
 -0.0035851746     1     7     7     3
 0.0008033390     1     7     7     4
 -0.0016234507     1     7     7     6
 0.0007018142     1     7     7     8
 0.0002355445     1     7     7     9
 -0.0011965039     1     7     7    10
 -0.0006291682     1     7     7    12
 0.0005031407     1     7     7    13
 0.0503625980     1     7     8     1
 -0.0020819348     1     7     8     2
 0.0004156529     1     7     8     3
 -0.0003122951     1     7     8     4
 0.0008629332     1     7     8     6
 -0.0009199857     1     7     8     8
 -0.0000715270     1     7     8     9
 -0.0002322905     1     7     8    10
 0.0006928457     1     7     8    12
 -0.0002628462     1     7     8    13
 -0.0481679933     1     7     9     1
 0.0010688633     1     7     9     2
 -0.0015171138     1     7     9     3
 -0.0001936928     1     7     9     4
 -0.0004557843     1     7     9     6
 0.0003740737     1     7     9     8
 -0.0000861296     1     7     9     9
 0.0008087604     1     7     9    10
 -0.0003944039     1     7     9    12
 -0.0003328904     1     7     9    13
 -0.0893377286     1     7    10     1
 0.0035683386     1     7    10     2
 -0.0036339752     1     7    10     3
 0.0028589182     1     7    10     4
 -0.0003446658     1     7    10     6
 0.0000212560     1     7    10     8
 0.0011039237     1     7    10     9
 -0.0018761306     1     7    10    10
 -0.0006271589     1     7    10    12
 -0.0003306384     1     7    10    13
 -0.0022961077     1     7    11     5
 -0.0018522612     1     7    11    11
 -0.0008579721     1     7    11    14
 -0.0046189371     1     7    12     1
 0.0012067518     1     7    12     2
 -0.0007980335     1     7    12     3
 -0.0010215307     1     7    12     4
 -0.0010990097     1     7    12     6
 0.0005927061     1     7    12     8
 -0.0000370676     1     7    12     9
 -0.0002934158     1     7    12    10
 -0.0004848902     1     7    12    12
 0.0002808679     1     7    12    13
 0.1293832760     1     7    13     1
 -0.0052283056     1     7    13     2
 0.0029712708     1     7    13     3
 0.0008776786     1     7    13     4
 0.0028225427     1     7    13     6
 -0.0012173300     1     7    13     8
 -0.0009043042     1     7    13     9
 0.0002875638     1     7    13    10
 0.0011893354     1     7    13    12
 -0.0003086780     1     7    13    13
 -0.0034810018     1     7    14     5
 -0.0009324430     1     7    14    11
 -0.0007107734     1     7    14    14
 -0.0318337755     1     8     2     1
 -0.0002469263     1     8     2     2
 -0.0008667216     1     8     2     3
 -0.0009744275     1     8     2     4
 -0.0002112203     1     8     2     6
 -0.0001599310     1     8     2     7
 0.0000892128     1     8     2     9
 -0.0003277114     1     8     2    10
 0.0002428250     1     8     2    12
 -0.0002740473     1     8     2    13
 0.0407290960     1     8     3     1
 -0.0033378413     1     8     3     2
 -0.0010680254     1     8     3     3
 0.0017473278     1     8     3     4
 0.0009294753     1     8     3     6
 -0.0006960603     1     8     3     7
 0.0000449624     1     8     3     9
 -0.0015029906     1     8     3    10
 0.0010754410     1     8     3    12
 0.0003264141     1     8     3    13
 0.0913994576     1     8     4     1
 -0.0078611414     1     8     4     2
 0.0038381244     1     8     4     3
 -0.0011031452     1     8     4     4
 0.0011820648     1     8     4     6
 -0.0002917956     1     8     4     7
 -0.0013577618     1     8     4     9
 0.0007848336     1     8     4    10
 0.0007968960     1     8     4    12
 -0.0000524354     1     8     4    13
 -0.0036210997     1     8     5     5
 -0.0020682330     1     8     5    11
 -0.0009564969     1     8     5    14
 0.1420244892     1     8     6     1
 -0.0053050045     1     8     6     2
 0.0010284901     1     8     6     3
 -0.0024325371     1     8     6     4
 0.0007574298     1     8     6     6
 -0.0005543628     1     8     6     7
 -0.0009964403     1     8     6     9
 0.0002984779     1     8     6    10
 0.0004870666     1     8     6    12
 0.0008756400     1     8     6    13
 0.0503625980     1     8     7     1
 -0.0022504848     1     8     7     2
 -0.0002721929     1     8     7     3
 -0.0006041827     1     8     7     4
 0.0003104608     1     8     7     6
 -0.0007018142     1     8     7     7
 -0.0004458099     1     8     7     9
 -0.0002547172     1     8     7    10
 0.0001013210     1     8     7    12
 0.0009536825     1     8     7    13
 -0.3142187706     1     8     8     1
 0.0029442436     1     8     8     2
 0.0006800147     1     8     8     3
 0.0032374690     1     8     8     4
 0.0008285323     1     8     8     6
 0.0009199857     1     8     8     7
 0.0008450085     1     8     8     9
 -0.0003397523     1     8     8    10
 0.0000658030     1     8     8    12
 -0.0017766568     1     8     8    13
 0.0120254333     1     8     9     1
 -0.0010118765     1     8     9     2
 -0.0001445014     1     8     9     3
 0.0000597029     1     8     9     4
 0.0002509997     1     8     9     6
 -0.0003740737     1     8     9     7