&FCI NORB= 10,NELEC= 16,MS2=0,
 ORBSYM=1,1,1,1,1,1,1,1,1,1
 ISYM=1,
&END
 0.3951956483     1     1     2     2
 0.0000000020     1     1     2     3
 -0.0050233599     1     1     2     4
 0.0000000059     1     1     2     7
 -0.0000000011     1     1     2    10
 0.0000000020     1     1     3     2
 0.6005204035     1     1     3     3
 -0.0000001364     1     1     3     4
 0.1103006945     1     1     3     7
 0.0335872520     1     1     3    10
 -0.0050233599     1     1     4     2
 -0.0000001364     1     1     4     3
 0.4825735911     1     1     4     4
 0.0000001221     1     1     4     7
 -0.0000000377     1     1     4    10
 0.4803179896     1     1     5     5
 0.0000001354     1     1     5     6
 0.0000000734     1     1     5     8
 -0.0211594903     1     1     5     9
 0.0000001354     1     1     6     5
 0.4803784763     1     1     6     6
 -0.0383147575     1     1     6     8
 0.0000000504     1     1     6     9
 0.0000000059     1     1     7     2
 0.1103006945     1     1     7     3
 0.0000001221     1     1     7     4
 0.5613541451     1     1     7     7
 -0.0451009825     1     1     7    10
 0.0000000734     1     1     8     5
 -0.0383147575     1     1     8     6
 0.5052235733     1     1     8     8
 -0.0000000924     1     1     8     9
 -0.0211594903     1     1     9     5
 0.0000000504     1     1     9     6
 -0.0000000924     1     1     9     8
 0.4421985792     1     1     9     9
 -0.0000000011     1     1    10     2
 0.0335872520     1     1    10     3
 -0.0000000377     1     1    10     4
 -0.0451009825     1     1    10     7
 0.2195554503     1     1    10    10
 -0.3951956483     1     2     2     1
 -0.0043933400     1     2     2     3
 -0.0000000023     1     2     2     4
 -0.0127353264     1     2     2     7
 0.0024048100     1     2     2    10
 -0.0000000020     1     2     3     1
 -0.0000000005     1     2     3     3
 0.1483252134     1     2     3     4
 -0.0000000003     1     2     3     7
 -0.0000000002     1     2     3    10
 0.0050233599     1     2     4     1
 0.1484437402     1     2     4     3
 -0.0000000002     1     2     4     4
 -0.1319950530     1     2     4     7
 0.0404642327     1     2     4    10
 -0.0000000116     1     2     5     5
 -0.1468222543     1     2     5     6
 -0.0815905570     1     2     5     8
 -0.0000000016     1     2     5     9
 -0.1468123563     1     2     6     5
 0.0000000112     1     2     6     6
 0.0000000031     1     2     6     8
 -0.0537817838     1     2     6     9
 -0.0000000059     1     2     7     1
 -0.0000000003     1     2     7     3
 -0.1323251571     1     2     7     4
 0.0000000001     1     2     7     7
 0.0000000001     1     2     7    10
 -0.0813436155     1     2     8     5
 0.0000000031     1     2     8     6
 0.0000000009     1     2     8     8
 0.1000139828     1     2     8     9
 -0.0000000016     1     2     9     5
 -0.0535741708     1     2     9     6
 0.0999971246     1     2     9     8
 -0.0000000008     1     2     9     9
 0.0000000011     1     2    10     1
 -0.0000000002     1     2    10     3
 0.0405173775     1     2    10     4
 0.0000000001     1     2    10     7
 -0.0000000005     1     2    10    10
 -0.0000000020     1     3     2     1
 0.0043933400     1     3     2     2
 -0.0001199646     1     3     2     4
 -0.6005204035     1     3     3     1
 0.0000000005     1     3     3     2
 -0.0000000018     1     3     3     4
 -0.0094556035     1     3     3     7
 0.0026359145     1     3     3    10
 0.0000001364     1     3     4     1
 -0.1484437402     1     3     4     2
 -0.0052453541     1     3     4     4
 -0.0000000051     1     3     4     7
 0.0000000011     1     3     4    10
 -0.0111043968     1     3     5     5
 -0.0000000050     1     3     5     6
 -0.0000000031     1     3     5     8
 0.0017092987     1     3     5     9
 -0.0000000049     1     3     6     5
 -0.0110403832     1     3     6     6
 0.0025787630     1     3     6     8
 -0.0000000025     1     3     6     9
 -0.1103006945     1     3     7     1
 0.0000000003     1     3     7     2
 -0.0000000056     1     3     7     4
 -0.0177493424     1     3     7     7
 0.0046737004     1     3     7    10
 -0.0000000020     1     3     8     5
 0.0021726845     1     3     8     6
 -0.0119368692     1     3     8     8
 0.0000000047     1     3     8     9
 0.0010931310     1     3     9     5
 -0.0000000012     1     3     9     6
 0.0000000041     1     3     9     8
 -0.0077183856     1     3     9     9
 -0.0335872520     1     3    10     1
 0.0000000002     1     3    10     2
 0.0000000007     1     3    10     4
 0.0021312751     1     3    10     7
 -0.0008351761     1     3    10    10
 0.0050233599     1     4     2     1
 0.0000000023     1     4     2     2
 0.0001199646     1     4     2     3
 0.0003314266     1     4     2     7
 -0.0000629152     1     4     2    10
 0.0000001364     1     4     3     1
 -0.1483252134     1     4     3     2
 0.0000000018     1     4     3     3
 0.0000000006     1     4     3     7
 0.0000000003     1     4     3    10
 -0.4825735911     1     4     4     1
 0.0000000002     1     4     4     2
 0.0052453541     1     4     4     3
 0.0026012573     1     4     4     7
 0.0001128435     1     4     4    10
 0.0000000051     1     4     5     5
 0.0064610763     1     4     5     6
 0.0017655146     1     4     5     8
 -0.0000000004     1     4     5     9
 0.0065143138     1     4     6     5
 0.0000000041     1     4     6     6
 -0.0000000007     1     4     6     8
 0.0007810081     1     4     6     9
 -0.0000001221     1     4     7     1
 0.1323251571     1     4     7     2
 0.0000000056     1     4     7     3
 0.0000000074     1     4     7     7
 -0.0000000007     1     4     7    10
 0.0040023090     1     4     8     5
 -0.0000000006     1     4     8     6
 0.0000000052     1     4     8     8
 -0.0059145095     1     4     8     9
 -0.0000000001     1     4     9     5
 0.0022515870     1     4     9     6
 -0.0053478110     1     4     9     8
 0.0000000036     1     4     9     9
 0.0000000377     1     4    10     1
 -0.0405173775     1     4    10     2
 -0.0000000007     1     4    10     3
 -0.0000000011     1     4    10     7
 0.0000000003     1     4    10    10
 -0.0000077988     1     5     2     6
 -0.0002435058     1     5     2     8
 -0.0000000012     1     5     3     8
 0.0003510759     1     5     3     9
 -0.0000465329     1     5     4     6
 -0.0022242262     1     5     4     8
 -0.0000000002     1     5     4     9
 -0.4803179896     1     5     5     1
 0.0000000116     1     5     5     2
 0.0111043968     1     5     5     3
 -0.0000000051     1     5     5     4
 -0.0034075196     1     5     5     7
 0.0020114316     1     5     5    10
 -0.0000001354     1     5     6     1
 0.1468123563     1     5     6     2
 0.0000000049     1     5     6     3
 -0.0065143138     1     5     6     4
 0.0000000014     1     5     6     7
 0.0000000002     1     5     6    10
 -0.0000000009     1     5     7     8
 -0.0009737549     1     5     7     9
 -0.0000000734     1     5     8     1
 0.0813436155     1     5     8     2
 0.0000000020     1     5     8     3
 -0.0040023090     1     5     8     4
 0.0000000005     1     5     8     7
 0.0000000002     1     5     8    10
 0.0211594903     1     5     9     1
 0.0000000016     1     5     9     2
 -0.0010931310     1     5     9     3
 0.0000000001     1     5     9     4
 0.0005262629     1     5     9     7
 -0.0004522989     1     5     9    10
 0.0000000001     1     5    10     8
 0.0000963446     1     5    10     9
 0.0000077988     1     6     2     5
 -0.0002036104     1     6     2     9
 0.0003466601     1     6     3     8
 -0.0000000011     1     6     3     9
 0.0000465329     1     6     4     5
 -0.0000000001     1     6     4     8
 -0.0019268516     1     6     4     9
 -0.0000001354     1     6     5     1
 0.1468222543     1     6     5     2
 0.0000000050     1     6     5     3
 -0.0064610763     1     6     5     4
 0.0000000015     1     6     5     7
 0.0000000002     1     6     5    10
 -0.4803784763     1     6     6     1
 -0.0000000112     1     6     6     2
 0.0110403832     1     6     6     3
 -0.0000000041     1     6     6     4
 -0.0034420724     1     6     6     7
 0.0020119184     1     6     6    10
 -0.0011609271     1     6     7     8
 -0.0000000007     1     6     7     9
 0.0383147575     1     6     8     1
 -0.0000000031     1     6     8     2
 -0.0021726845     1     6     8     3
 0.0000000006     1     6     8     4
 0.0007773688     1     6     8     7
 -0.0007214548     1     6     8    10
 -0.0000000504     1     6     9     1
 0.0535741708     1     6     9     2
 0.0000000012     1     6     9     3
 -0.0022515870     1     6     9     4
 0.0000000004     1     6     9     7
 0.0000000001     1     6     9    10
 0.0000069505     1     6    10     8
 0.0000000001     1     6    10     9
 -0.0000000059     1     7     2     1
 0.0127353264     1     7     2     2
 -0.0003314266     1     7     2     4
 -0.1103006945     1     7     3     1
 0.0000000003     1     7     3     2
 0.0094556035     1     7     3     3
 -0.0000000006     1     7     3     4
 0.0023038894     1     7     3    10
 -0.0000001221     1     7     4     1
 0.1319950530     1     7     4     2
 0.0000000051     1     7     4     3
 -0.0026012573     1     7     4     4
 0.0000000006     1     7     4    10
 0.0034075196     1     7     5     5
 -0.0000000015     1     7     5     6
 -0.0000000014     1     7     5     8
 -0.0015391882     1     7     5     9
 -0.0000000014     1     7     6     5
 0.0034420724     1     7     6     6
 -0.0018802724     1     7     6     8
 -0.0000000011     1     7     6     9
 -0.5613541451     1     7     7     1
 -0.0000000001     1     7     7     2
 0.0177493424     1     7     7     3
 -0.0000000074     1     7     7     4
 0.0041122471     1     7     7    10
 -0.0000000005     1     7     8     5
 -0.0007773688     1     7     8     6
 0.0029309156     1     7     8     8
 0.0000000014     1     7     8     9
 -0.0005262629     1     7     9     5
 -0.0000000004     1     7     9     6
 0.0000000011     1     7     9     8
 0.0021202258     1     7     9     9
 0.0451009825     1     7    10     1
 -0.0000000001     1     7    10     2
 -0.0021312751     1     7    10     3
 0.0000000011     1     7    10     4
 -0.0003738883     1     7    10    10
 0.0002435058     1     8     2     5
 0.0000144620     1     8     2     9
 0.0000000012     1     8     3     5
 -0.0003466601     1     8     3     6
 0.0000000001     1     8     3     9
 0.0022242262     1     8     4     5
 0.0000000001     1     8     4     6
 0.0000916062     1     8     4     9
 -0.0000000734     1     8     5     1
 0.0815905570     1     8     5     2
 0.0000000031     1     8     5     3
 -0.0017655146     1     8     5     4
 0.0000000014     1     8     5     7
 0.0383147575     1     8     6     1
 -0.0000000031     1     8     6     2
 -0.0025787630     1     8     6     3
 0.0000000007     1     8     6     4
 0.0018802724     1     8     6     7
 -0.0007156661     1     8     6    10
 0.0000000009     1     8     7     5
 0.0011609271     1     8     7     6
 0.0000000001     1     8     7     9
 -0.5052235733     1     8     8     1
 -0.0000000009     1     8     8     2
 0.0119368692     1     8     8     3
 -0.0000000052     1     8     8     4
 -0.0029309156     1     8     8     7
 0.0028662695     1     8     8    10
 0.0000000924     1     8     9     1
 -0.0999971246     1     8     9     2
 -0.0000000041     1     8     9     3
 0.0053478110     1     8     9     4
 -0.0000000011     1     8     9     7
 -0.0000000005     1     8     9    10
 -0.0000000001     1     8    10     5
 -0.0000069505     1     8    10     6
 0.0002036104     1     9     2     6
 -0.0000144620     1     9     2     8
 -0.0003510759     1     9     3     5
 0.0000000011     1     9     3     6
 -0.0000000001     1     9     3     8
 0.0000000002     1     9     4     5
 0.0019268516     1     9     4     6
 -0.0000916062     1     9     4     8
 0.0211594903     1     9     5     1
 0.0000000016     1     9     5     2
 -0.0017092987     1     9     5     3
 0.0000000004     1     9     5     4
 0.0015391882     1     9     5     7
 -0.0005186435     1     9     5    10
 -0.0000000504     1     9     6     1
 0.0537817838     1     9     6     2
 0.0000000025     1     9     6     3
 -0.0007810081     1     9     6     4
 0.0000000011     1     9     6     7
 0.0009737549     1     9     7     5
 0.0000000007     1     9     7     6
 -0.0000000001     1     9     7     8
 0.0000000924     1     9     8     1
 -0.1000139828     1     9     8     2
 -0.0000000047     1     9     8     3
 0.0059145095     1     9     8     4
 -0.0000000014     1     9     8     7
 -0.0000000006     1     9     8    10
 -0.4421985792     1     9     9     1
 0.0000000008     1     9     9     2
 0.0077183856     1     9     9     3
 -0.0000000036     1     9     9     4
 -0.0021202258     1     9     9     7
 0.0017928629     1     9     9    10
 -0.0000963446     1     9    10     5
 -0.0000000001     1     9    10     6
 0.0000000011     1    10     2     1
 -0.0024048100     1    10     2     2
 0.0000629152     1    10     2     4
 -0.0335872520     1    10     3     1
 0.0000000002     1    10     3     2
 -0.0026359145     1    10     3     3
 -0.0000000003     1    10     3     4
 -0.0023038894     1    10     3     7
 0.0000000377     1    10     4     1
 -0.0404642327     1    10     4     2
 -0.0000000011     1    10     4     3
 -0.0001128435     1    10     4     4
 -0.0000000006     1    10     4     7
 -0.0020114316     1    10     5     5
 -0.0000000002     1    10     5     6
 0.0005186435     1    10     5     9
 -0.0000000002     1    10     6     5
 -0.0020119184     1    10     6     6
 0.0007156661     1    10     6     8
 0.0451009825     1    10     7     1
 -0.0000000001     1    10     7     2
 -0.0046737004     1    10     7     3
 0.0000000007     1    10     7     4
 -0.0041122471     1    10     7     7
 -0.0000000002     1    10     8     5
 0.0007214548     1    10     8     6
 -0.0028662695     1    10     8     8
 0.0000000006     1    10     8     9
 0.0004522989     1    10     9     5
 -0.0000000001     1    10     9     6
 0.0000000005     1    10     9     8
 -0.0017928629     1    10     9     9
 -0.2195554503     1    10    10     1
 0.0000000005     1    10    10     2
 0.0008351761     1    10    10     3
 -0.0000000003     1    10    10     4
 0.0003738883     1    10    10     7
 -0.3951956483     2     1     1     2
 -0.0000000020     2     1     1     3
 0.0050233599     2     1     1     4
 -0.0000000059     2     1     1     7
 0.0000000011     2     1     1    10
 -0.0043933400     2     1     3     2
 -0.0000000005     2     1     3     3
 0.1484437402     2     1     3     4
 -0.0000000003     2     1     3     7
 -0.0000000002     2     1     3    10
 -0.0000000023     2     1     4     2
 0.1483252134     2     1     4     3
 -0.0000000002     2     1     4     4
 -0.1323251571     2     1     4     7
 0.0405173775     2     1     4    10
 -0.0000000116     2     1     5     5
 -0.1468123563     2     1     5     6
 -0.0813436155     2     1     5     8
 -0.0000000016     2     1     5     9
 -0.1468222543     2     1     6     5
 0.0000000112     2     1     6     6
 0.0000000031     2     1     6     8
 -0.0535741708     2     1     6     9
 -0.0127353264     2     1     7     2
 -0.0000000003     2     1     7     3
 -0.1319950530     2     1     7     4
 0.0000000001     2     1     7     7
 0.0000000001     2     1     7    10
 -0.0815905570     2     1     8     5
 0.0000000031     2     1     8     6
 0.0000000009     2     1     8     8
 0.0999971246     2     1     8     9
 -0.0000000016     2     1     9     5
 -0.0537817838     2     1     9     6
 0.1000139828     2     1     9     8
 -0.0000000008     2     1     9     9
 0.0024048100     2     1    10     2
 -0.0000000002     2     1    10     3
 0.0404642327     2     1    10     4
 0.0000000001     2     1    10     7
 -0.0000000005     2     1    10    10
 0.3951956483     2     2     1     1
 0.0043933400     2     2     1     3
 0.0000000023     2     2     1     4
 0.0127353264     2     2     1     7
 -0.0024048100     2     2     1    10
 0.0043933400     2     2     3     1
 0.6005468088     2     2     3     3
 0.0000001371     2     2     3     4
 0.1105087475     2     2     3     7
 0.0335426811     2     2     3    10
 0.0000000023     2     2     4     1
 0.0000001371     2     2     4     3
 0.4824762351     2     2     4     4
 -0.0000001215     2     2     4     7
 0.0000000369     2     2     4    10
 0.4804821624     2     2     5     5
 -0.0000001354     2     2     5     6
 -0.0000000767     2     2     5     8
 -0.0213294581     2     2     5     9
 -0.0000001354     2     2     6     5
 0.4805270093     2     2     6     6
 -0.0385508345     2     2     6     8
 -0.0000000484     2     2     6     9
 0.0127353264     2     2     7     1
 0.1105087475     2     2     7     3
 -0.0000001215     2     2     7     4
 0.5621563710     2     2     7     7
 -0.0452533610     2     2     7    10
 -0.0000000767     2     2     8     5
 -0.0385508345     2     2     8     6
 0.5052227831     2     2     8     8
 0.0000000919     2     2     8     9
 -0.0213294581     2     2     9     5
 -0.0000000484     2     2     9     6
 0.0000000919     2     2     9     8
 0.4421855682     2     2     9     9
 -0.0024048100     2     2    10     1
 0.0335426811     2     2    10     3
 0.0000000369     2     2    10     4
 -0.0452533610     2     2    10     7
 0.2195888428     2     2    10    10
 0.0000000020     2     3     1     1
 -0.0043933400     2     3     1     2
 0.0001199646     2     3     1     4
 0.0000000005     2     3     3     1
 -0.6005468088     2     3     3     2
 0.0039809990     2     3     3     4
 -0.0000000044     2     3     3     7
 0.0000000012     2     3     3    10
 -0.1483252134     2     3     4     1
 -0.0000001371     2     3     4     2
 -0.0000000024     2     3     4     4
 0.0109715610     2     3     4     7
 -0.0024318557     2     3     4    10
 -0.0000000042     2     3     5     5
 0.0107966205     2     3     5     6
 0.0071375727     2     3     5     8
 0.0000000009     2     3     5     9
 0.0107114164     2     3     6     5
 -0.0000000060     2     3     6     6
 0.0000000009     2     3     6     8
 0.0052200464     2     3     6     9
 0.0000000003     2     3     7     1
 -0.1105087475     2     3     7     2
 0.0121906658     2     3     7     4
 -0.0000000082     2     3     7     7
 0.0000000022     2     3     7    10
 0.0044342845     2     3     8     5
 0.0000000009     2     3     8     6
 -0.0000000056     2     3     8     8
 -0.0100347220     2     3     8     9
 0.0000000006     2     3     9     5
 0.0024614714     2     3     9     6
 -0.0088271467     2     3     9     8
 -0.0000000035     2     3     9     9
 0.0000000002     2     3    10     1
 -0.0335426811     2     3    10     2
 -0.0016046726     2     3    10     4
 0.0000000009     2     3    10     7
 -0.0000000004     2     3    10    10
 -0.0050233599     2     4     1     1
 -0.0000000023     2     4     1     2
 -0.0001199646     2     4     1     3
 -0.0003314266     2     4     1     7
 0.0000629152     2     4     1    10
 -0.1484437402     2     4     3     1
 -0.0000001371     2     4     3     2
 -0.0039809990     2     4     3     3
 -0.0012096349     2     4     3     7
 -0.0005859929     2     4     3    10
 0.0000000002     2     4     4     1
 -0.4824762351     2     4     4     2
 0.0000000024     2     4     4     3
 0.0000000011     2     4     4     7
 0.0000000001     2     4     4    10
 -0.0099436757     2     4     5     5
 0.0000000030     2     4     5     6
 0.0000000009     2     4     5     8
 0.0008668258     2     4     5     9
 0.0000000030     2     4     6     5
 -0.0100004433     2     4     6     6
 0.0012794658     2     4     6     8
 0.0000000004     2     4     6     9
 0.1319950530     2     4     7     1
 0.0000001215     2     4     7     2
 -0.0121906658     2     4     7     3
 -0.0161178672     2     4     7     7
 0.0014785498     2     4     7    10
 0.0000000019     2     4     8     5
 0.0010168177     2     4     8     6
 -0.0114581670     2     4     8     8
 -0.0000000027     2     4     8     9
 0.0004743190     2     4     9     5
 0.0000000010     2     4     9     6
 -0.0000000025     2     4     9     8
 -0.0076563369     2     4     9     9
 -0.0404642327     2     4    10     1
 -0.0000000369     2     4    10     2
 0.0016046726     2     4    10     3
 0.0024022331     2     4    10     7
 -0.0005804039     2     4    10    10
 0.0000077988     2     5     1     6
 0.0002435058     2     5     1     8
 0.0000949916     2     5     3     6
 0.0026537541     2     5     3     8
 0.0000000002     2     5     3     9
 -0.0000000001     2     5     4     6
 -0.0000000010     2     5     4     8
 0.0003057687     2     5     4     9
 0.0000000116     2     5     5     1
 -0.4804821624     2     5     5     2
 0.0000000042     2     5     5     3
 0.0099436757     2     5     5     4
 -0.0000000018     2     5     5     7
 0.0000000009     2     5     5    10
 0.1468222543     2     5     6     1
 0.0000001354     2     5     6     2
 -0.0107114164     2     5     6     3
 -0.0000000030     2     5     6     4
 -0.0031791093     2     5     6     7
 -0.0004741030     2     5     6    10
 -0.0000047507     2     5     7     6
 0.0017446339     2     5     7     8
 -0.0000000004     2     5     7     9
 0.0815905570     2     5     8     1
 0.0000000767     2     5     8     2
 -0.0044342845     2     5     8     3
 -0.0000000019     2     5     8     4
 -0.0010870937     2     5     8     7
 -0.0004006351     2     5     8    10
 0.0000000016     2     5     9     1
 0.0213294581     2     5     9     2
 -0.0000000006     2     5     9     3
 -0.0004743190     2     5     9     4
 0.0000000002     2     5     9     7
 -0.0000000002     2     5     9    10
 -0.0000024717     2     5    10     6
 -0.0002832692     2     5    10     8
 -0.0000077988     2     6     1     5
 0.0002036104     2     6     1     9
 -0.0000949916     2     6     3     5
 0.0021964924     2     6     3     9
 0.0000000001     2     6     4     5
 0.0002462299     2     6     4     8
 -0.0000000008     2     6     4     9
 0.1468123563     2     6     5     1
 0.0000001354     2     6     5     2
 -0.0107966205     2     6     5     3
 -0.0000000030     2     6     5     4
 -0.0031533780     2     6     5     7
 -0.0004831585     2     6     5    10
 -0.0000000112     2     6     6     1
 -0.4805270093     2     6     6     2
 0.0000000060     2     6     6     3
 0.0100004433     2     6     6     4
 -0.0000000014     2     6     6     7
 0.0000000009     2     6     6    10
 0.0000047507     2     6     7     5
 -0.0000000006     2     6     7     8
 0.0016212256     2     6     7     9
 -0.0000000031     2     6     8     1
 0.0385508345     2     6     8     2
 -0.0000000009     2     6     8     3
 -0.0010168177     2     6     8     4
 0.0000000004     2     6     8     7
 -0.0000000004     2     6     8    10
 0.0537817838     2     6     9     1
 0.0000000484     2     6     9     2
 -0.0024614714     2     6     9     3
 -0.0000000010     2     6     9     4
 -0.0007026785     2     6     9     7
 -0.0002034078     2     6     9    10
 0.0000024717     2     6    10     5
 -0.0003440434     2     6    10     9
 0.0000000059     2     7     1     1
 -0.0127353264     2     7     1     2
 0.0003314266     2     7     1     4
 0.0000000003     2     7     3     1
 -0.1105087475     2     7     3     2
 0.0000000044     2     7     3     3
 0.0012096349     2     7     3     4
 0.0000000011     2     7     3    10
 0.1323251571     2     7     4     1
 0.0000001215     2     7     4     2
 -0.0109715610     2     7     4     3
 -0.0000000011     2     7     4     4
 -0.0012711873     2     7     4    10
 0.0000000018     2     7     5     5
 0.0031533780     2     7     5     6
 0.0028477119     2     7     5     8
 -0.0000000006     2     7     5     9
 0.0031791093     2     7     6     5
 0.0000000014     2     7     6     6
 -0.0000000010     2     7     6     8
 0.0026283934     2     7     6     9
 -0.0000000001     2     7     7     1
 -0.5621563710     2     7     7     2
 0.0000000082     2     7     7     3
 0.0161178672     2     7     7     4
 0.0000000019     2     7     7    10
 0.0010870937     2     7     8     5
 -0.0000000004     2     7     8     6
 0.0000000014     2     7     8     8
 -0.0029958277     2     7     8     9
 -0.0000000002     2     7     9     5
 0.0007026785     2     7     9     6
 -0.0024023901     2     7     9     8
 0.0000000010     2     7     9     9
 -0.0000000001     2     7    10     1
 0.0452533610     2     7    10     2
 -0.0000000009     2     7    10     3
 -0.0024022331     2     7    10     4
 -0.0000000001     2     7    10    10
 -0.0002435058     2     8     1     5
 -0.0000144620     2     8     1     9
 -0.0026537541     2     8     3     5
 -0.0003540800     2     8     3     9
 0.0000000010     2     8     4     5
 -0.0002462299     2     8     4     6
 0.0000000001     2     8     4     9
 0.0813436155     2     8     5     1
 0.0000000767     2     8     5     2
 -0.0071375727     2     8     5     3
 -0.0000000009     2     8     5     4
 -0.0028477119     2     8     5     7
 -0.0000662775     2     8     5    10
 -0.0000000031     2     8     6     1
 0.0385508345     2     8     6     2
 -0.0000000009     2     8     6     3
 -0.0012794658     2     8     6     4
 0.0000000010     2     8     6     7
 -0.0000000004     2     8     6    10
 -0.0017446339     2     8     7     5
 0.0000000006     2     8     7     6
 -0.0002492259     2     8     7     9
 -0.0000000009     2     8     8     1
 -0.5052227831     2     8     8     2
 0.0000000056     2     8     8     3
 0.0114581670     2     8     8     4
 -0.0000000014     2     8     8     7
 0.0000000013     2     8     8    10
 -0.1000139828     2     8     9     1
 -0.0000000919     2     8     9     2
 0.0088271467     2     8     9     3
 0.0000000025     2     8     9     4
 0.0024023901     2     8     9     7
 0.0009727171     2     8     9    10
 0.0002832692     2     8    10     5
 -0.0000199378     2     8    10     9
 -0.0002036104     2     9     1     6
 0.0000144620     2     9     1     8
 -0.0000000002     2     9     3     5
 -0.0021964924     2     9     3     6
 0.0003540800     2     9     3     8
 -0.0003057687     2     9     4     5
 0.0000000008     2     9     4     6
 -0.0000000001     2     9     4     8
 0.0000000016     2     9     5     1
 0.0213294581     2     9     5     2
 -0.0000000009     2     9     5     3
 -0.0008668258     2     9     5     4
 0.0000000006     2     9     5     7
 -0.0000000002     2     9     5    10
 0.0535741708     2     9     6     1
 0.0000000484     2     9     6     2
 -0.0052200464     2     9     6     3
 -0.0000000004     2     9     6     4
 -0.0026283934     2     9     6     7
 0.0001568967     2     9     6    10
 0.0000000004     2     9     7     5
 -0.0016212256     2     9     7     6
 0.0002492259     2     9     7     8
 -0.0999971246     2     9     8     1
 -0.0000000919     2     9     8     2
 0.0100347220     2     9     8     3
 0.0000000027     2     9     8     4
 0.0029958277     2     9     8     7
 0.0011694680     2     9     8    10
 0.0000000008     2     9     9     1
 -0.4421855682     2     9     9     2
 0.0000000035     2     9     9     3
 0.0076563369     2     9     9     4
 -0.0000000010     2     9     9     7
 0.0000000008     2     9     9    10
 0.0003440434     2     9    10     6
 0.0000199378     2     9    10     8
 -0.0000000011     2    10     1     1
 0.0024048100     2    10     1     2
 -0.0000629152     2    10     1     4
 0.0000000002     2    10     3     1
 -0.0335426811     2    10     3     2
 -0.0000000012     2    10     3     3
 0.0005859929     2    10     3     4
 -0.0000000011     2    10     3     7
 -0.0405173775     2    10     4     1
 -0.0000000369     2    10     4     2
 0.0024318557     2    10     4     3
 -0.0000000001     2    10     4     4
 0.0012711873     2    10     4     7
 -0.0000000009     2    10     5     5
 0.0004831585     2    10     5     6
 0.0000662775     2    10     5     8
 0.0000000002     2    10     5     9
 0.0004741030     2    10     6     5
 -0.0000000009     2    10     6     6
 0.0000000004     2    10     6     8
 -0.0001568967     2    10     6     9
 -0.0000000001     2    10     7     1
 0.0452533610     2    10     7     2
 -0.0000000022     2    10     7     3
 -0.0014785498     2    10     7     4
 -0.0000000019     2    10     7     7
 0.0004006351     2    10     8     5
 0.0000000004     2    10     8     6
 -0.0000000013     2    10     8     8
 -0.0011694680     2    10     8     9
 0.0000000002     2    10     9     5
 0.0002034078     2    10     9     6
 -0.0009727171     2    10     9     8
 -0.0000000008     2    10     9     9
 0.0000000005     2    10    10     1
 -0.2195888428     2    10    10     2
 0.0000000004     2    10    10     3
 0.0005804039     2    10    10     4
 0.0000000001     2    10    10     7
 -0.0000000020     3     1     1     2
 -0.6005204035     3     1     1     3
 0.0000001364     3     1     1     4
 -0.1103006945     3     1     1     7
 -0.0335872520     3     1     1    10
 0.0043933400     3     1     2     2
 0.0000000005     3     1     2     3
 -0.1484437402     3     1     2     4
 0.0000000003     3     1     2     7
 0.0000000002     3     1     2    10
 -0.0001199646     3     1     4     2