&FCI NORB= 11,NELEC= 16,MS2=0,
 ORBSYM=1,1,1,1,1,1,1,1,1,1,1
 ISYM=1,
&END
 0.3952120914     1     1     2     2
 0.0000000025     1     1     2     3
 -0.0051153633     1     1     2     4
 0.0000000072     1     1     2     7
 -0.0000000013     1     1     2    10
 -0.0014664465     1     1     2    11
 0.0000000025     1     1     3     2
 0.6005051076     1     1     3     3
 -0.0000001656     1     1     3     4
 0.1102543281     1     1     3     7
 0.0336487043     1     1     3    10
 -0.0000000381     1     1     3    11
 -0.0051153633     1     1     4     2
 -0.0000001656     1     1     4     3
 0.4828963081     1     1     4     4
 0.0000001478     1     1     4     7
 -0.0000000454     1     1     4    10
 0.0576295288     1     1     4    11
 0.4807378542     1     1     5     5
 0.0000001635     1     1     5     6
 0.0000000899     1     1     5     8
 -0.0211925066     1     1     5     9
 0.0000001635     1     1     6     5
 0.4805071828     1     1     6     6
 -0.0385465722     1     1     6     8
 0.0000000620     1     1     6     9
 0.0000000072     1     1     7     2
 0.1102543281     1     1     7     3
 0.0000001478     1     1     7     4
 0.5613262724     1     1     7     7
 -0.0454337433     1     1     7    10
 0.0000000132     1     1     7    11
 0.0000000899     1     1     8     5
 -0.0385465722     1     1     8     6
 0.5074075264     1     1     8     8
 -0.0000001159     1     1     8     9
 -0.0211925066     1     1     9     5
 0.0000000620     1     1     9     6
 -0.0000001159     1     1     9     8
 0.4411144171     1     1     9     9
 -0.0000000013     1     1    10     2
 0.0336487043     1     1    10     3
 -0.0000000454     1     1    10     4
 -0.0454337433     1     1    10     7
 0.2192320340     1     1    10    10
 -0.0000000427     1     1    10    11
 -0.0014664465     1     1    11     2
 -0.0000000381     1     1    11     3
 0.0576295288     1     1    11     4
 0.0000000132     1     1    11     7
 -0.0000000427     1     1    11    10
 0.2135553655     1     1    11    11
 -0.3952120914     1     2     2     1
 -0.0044466786     1     2     2     3
 -0.0000000029     1     2     2     4
 -0.0129316660     1     2     2     7
 0.0024024381     1     2     2    10
 -0.0000000008     1     2     2    11
 -0.0000000025     1     2     3     1
 -0.0000000005     1     2     3     3
 0.1484695678     1     2     3     4
 -0.0000000002     1     2     3     7
 -0.0000000002     1     2     3    10
 0.0342929693     1     2     3    11
 0.0051153633     1     2     4     1
 0.1485896899     1     2     4     3
 -0.0000000002     1     2     4     4
 -0.1318192318     1     2     4     7
 0.0402991111     1     2     4    10
 0.0000000003     1     2     4    11
 -0.0000000115     1     2     5     5
 -0.1463343736     1     2     5     6
 -0.0819825998     1     2     5     8
 -0.0000000016     1     2     5     9
 -0.1463252722     1     2     6     5
 0.0000000111     1     2     6     6
 0.0000000032     1     2     6     8
 -0.0546714221     1     2     6     9
 -0.0000000072     1     2     7     1
 -0.0000000002     1     2     7     3
 -0.1321608154     1     2     7     4
 0.0000000001     1     2     7    10
 -0.0120653659     1     2     7    11
 -0.0817250565     1     2     8     5
 0.0000000032     1     2     8     6
 0.0000000010     1     2     8     8
 0.1035886931     1     2     8     9
 -0.0000000016     1     2     9     5
 -0.0544575149     1     2     9     6
 0.1035750624     1     2     9     8
 -0.0000000008     1     2     9     9
 0.0000000013     1     2    10     1
 -0.0000000002     1     2    10     3
 0.0403536494     1     2    10     4
 0.0000000001     1     2    10     7
 -0.0000000005     1     2    10    10
 0.0381877723     1     2    10    11
 0.0014664465     1     2    11     1
 0.0343132753     1     2    11     3
 0.0000000003     1     2    11     4
 -0.0119680302     1     2    11     7
 0.0381691346     1     2    11    10
 0.0000000004     1     2    11    11
 -0.0000000025     1     3     2     1
 0.0044466786     1     3     2     2
 -0.0001207875     1     3     2     4
 -0.0000303471     1     3     2    11
 -0.6005051076     1     3     3     1
 0.0000000005     1     3     3     2
 -0.0000000022     1     3     3     4
 -0.0095614047     1     3     3     7
 0.0026557752     1     3     3    10
 -0.0000000008     1     3     3    11
 0.0000001656     1     3     4     1
 -0.1485896899     1     3     4     2
 -0.0052195782     1     3     4     4
 -0.0000000062     1     3     4     7
 0.0000000013     1     3     4    10
 -0.0011820833     1     3     4    11
 -0.0110841460     1     3     5     5
 -0.0000000060     1     3     5     6
 -0.0000000040     1     3     5     8
 0.0017151350     1     3     5     9
 -0.0000000060     1     3     6     5
 -0.0109843381     1     3     6     6
 0.0025303787     1     3     6     8
 -0.0000000030     1     3     6     9
 -0.1102543281     1     3     7     1
 0.0000000002     1     3     7     2
 -0.0000000069     1     3     7     4
 -0.0177566542     1     3     7     7
 0.0047160201     1     3     7    10
 -0.0000000017     1     3     7    11
 -0.0000000024     1     3     8     5
 0.0021074065     1     3     8     6
 -0.0117096403     1     3     8     8
 0.0000000057     1     3     8     9
 0.0011562993     1     3     9     5
 -0.0000000015     1     3     9     6
 0.0000000052     1     3     9     8
 -0.0080234106     1     3     9     9
 -0.0336487043     1     3    10     1
 0.0000000002     1     3    10     2
 0.0000000009     1     3    10     4
 0.0021943994     1     3    10     7
 -0.0008513642     1     3    10    10
 0.0000000007     1     3    10    11
 0.0000000381     1     3    11     1
 -0.0343132753     1     3    11     2
 -0.0008383620     1     3    11     4
 -0.0000000010     1     3    11     7
 0.0000000007     1     3    11    10
 -0.0005955012     1     3    11    11
 0.0051153633     1     4     2     1
 0.0000000029     1     4     2     2
 0.0001207875     1     4     2     3
 0.0003418673     1     4     2     7
 -0.0000644884     1     4     2    10
 0.0000001656     1     4     3     1
 -0.1484695678     1     4     3     2
 0.0000000022     1     4     3     3
 0.0000000006     1     4     3     7
 0.0000000003     1     4     3    10
 -0.0002094456     1     4     3    11
 -0.4828963081     1     4     4     1
 0.0000000002     1     4     4     2
 0.0052195782     1     4     4     3
 0.0025503093     1     4     4     7
 0.0001469930     1     4     4    10
 0.0000000060     1     4     5     5
 0.0064465753     1     4     5     6
 0.0016937530     1     4     5     8
 -0.0000000005     1     4     5     9
 0.0064822188     1     4     6     5
 0.0000000051     1     4     6     6
 -0.0000000008     1     4     6     8
 0.0007547686     1     4     6     9
 -0.0000001478     1     4     7     1
 0.1321608154     1     4     7     2
 0.0000000069     1     4     7     3
 0.0000000090     1     4     7     7
 -0.0000000008     1     4     7    10
 0.0001916592     1     4     7    11
 0.0040151543     1     4     8     5
 -0.0000000006     1     4     8     6
 0.0000000063     1     4     8     8
 -0.0059798254     1     4     8     9
 -0.0000000002     1     4     9     5
 0.0023617484     1     4     9     6
 -0.0056193680     1     4     9     8
 0.0000000044     1     4     9     9
 0.0000000454     1     4    10     1
 -0.0403536494     1     4    10     2
 -0.0000000009     1     4    10     3
 -0.0000000014     1     4    10     7
 0.0000000003     1     4    10    10
 0.0004138214     1     4    10    11
 -0.0576295288     1     4    11     1
 -0.0000000003     1     4    11     2
 0.0008383620     1     4    11     3
 0.0006411179     1     4    11     7
 0.0004767213     1     4    11    10
 0.0000000001     1     4    11    11
 -0.0000076752     1     5     2     6
 -0.0002534486     1     5     2     8
 -0.0000000015     1     5     3     8
 0.0003450515     1     5     3     9
 -0.0000319799     1     5     4     6
 -0.0023101403     1     5     4     8
 -0.0000000002     1     5     4     9
 -0.4807378542     1     5     5     1
 0.0000000115     1     5     5     2
 0.0110841460     1     5     5     3
 -0.0000000060     1     5     5     4
 -0.0034682339     1     5     5     7
 0.0020519502     1     5     5    10
 -0.0000000014     1     5     5    11
 -0.0000001635     1     5     6     1
 0.1463252722     1     5     6     2
 0.0000000060     1     5     6     3
 -0.0064822188     1     5     6     4
 0.0000000018     1     5     6     7
 0.0000000002     1     5     6    10
 -0.0011466865     1     5     6    11
 -0.0000000011     1     5     7     8
 -0.0009786476     1     5     7     9
 -0.0000000899     1     5     8     1
 0.0817250565     1     5     8     2
 0.0000000024     1     5     8     3
 -0.0040151543     1     5     8     4
 0.0000000006     1     5     8     7
 0.0000000002     1     5     8    10
 -0.0009610170     1     5     8    11
 0.0211925066     1     5     9     1
 0.0000000016     1     5     9     2
 -0.0011562993     1     5     9     3
 0.0000000002     1     5     9     4
 0.0005419415     1     5     9     7
 -0.0004677297     1     5     9    10
 0.0000000004     1     5     9    11
 0.0000000002     1     5    10     8
 0.0001026928     1     5    10     9
 0.0000001294     1     5    11     6
 -0.0000004180     1     5    11     8
 0.0000076752     1     6     2     5
 -0.0002079459     1     6     2     9
 0.0003581790     1     6     3     8
 -0.0000000012     1     6     3     9
 0.0000319799     1     6     4     5
 -0.0019620633     1     6     4     9
 -0.0000001635     1     6     5     1
 0.1463343736     1     6     5     2
 0.0000000060     1     6     5     3
 -0.0064465753     1     6     5     4
 0.0000000018     1     6     5     7
 0.0000000003     1     6     5    10
 -0.0011575034     1     6     5    11
 -0.4805071828     1     6     6     1
 -0.0000000111     1     6     6     2
 0.0109843381     1     6     6     3
 -0.0000000051     1     6     6     4
 -0.0035295421     1     6     6     7
 0.0020484782     1     6     6    10
 -0.0000000013     1     6     6    11
 -0.0012164045     1     6     7     8
 -0.0000000009     1     6     7     9
 0.0385465722     1     6     8     1
 -0.0000000032     1     6     8     2
 -0.0021074065     1     6     8     3
 0.0000000006     1     6     8     4
 0.0008343777     1     6     8     7
 -0.0007289163     1     6     8    10
 0.0000000005     1     6     8    11
 -0.0000000620     1     6     9     1
 0.0544575149     1     6     9     2
 0.0000000015     1     6     9     3
 -0.0023617484     1     6     9     4
 0.0000000004     1     6     9     7
 0.0000000002     1     6     9    10
 -0.0006145755     1     6     9    11
 0.0000087144     1     6    10     8
 0.0000000002     1     6    10     9
 -0.0000001294     1     6    11     5
 -0.0000000001     1     6    11     8
 -0.0000696073     1     6    11     9
 -0.0000000072     1     7     2     1
 0.0129316660     1     7     2     2
 -0.0003418673     1     7     2     4
 -0.0001002480     1     7     2    11
 -0.1102543281     1     7     3     1
 0.0000000002     1     7     3     2
 0.0095614047     1     7     3     3
 -0.0000000006     1     7     3     4
 0.0023106516     1     7     3    10
 -0.0000000007     1     7     3    11
 -0.0000001478     1     7     4     1
 0.1318192318     1     7     4     2
 0.0000000062     1     7     4     3
 -0.0025503093     1     7     4     4
 0.0000000008     1     7     4    10
 -0.0004571580     1     7     4    11
 0.0034682339     1     7     5     5
 -0.0000000018     1     7     5     6
 -0.0000000018     1     7     5     8
 -0.0015553610     1     7     5     9
 -0.0000000018     1     7     6     5
 0.0035295421     1     7     6     6
 -0.0019964298     1     7     6     8
 -0.0000000014     1     7     6     9
 -0.5613262724     1     7     7     1
 0.0177566542     1     7     7     3
 -0.0000000090     1     7     7     4
 0.0041892180     1     7     7    10
 -0.0000000022     1     7     7    11
 -0.0000000006     1     7     8     5
 -0.0008343777     1     7     8     6
 0.0030972959     1     7     8     8
 0.0000000017     1     7     8     9
 -0.0005419415     1     7     9     5
 -0.0000000004     1     7     9     6
 0.0000000014     1     7     9     8
 0.0020763976     1     7     9     9
 0.0454337433     1     7    10     1
 -0.0000000001     1     7    10     2
 -0.0021943994     1     7    10     3
 0.0000000014     1     7    10     4
 -0.0003870202     1     7    10    10
 0.0000000012     1     7    10    11
 -0.0000000132     1     7    11     1
 0.0119680302     1     7    11     2
 0.0000000010     1     7    11     3
 -0.0006411179     1     7    11     4
 0.0000000011     1     7    11    10
 -0.0004637888     1     7    11    11
 0.0002534486     1     8     2     5
 0.0000111691     1     8     2     9
 0.0000000015     1     8     3     5
 -0.0003581790     1     8     3     6
 0.0000000001     1     8     3     9
 0.0023101403     1     8     4     5
 0.0001420055     1     8     4     9
 -0.0000000899     1     8     5     1
 0.0819825998     1     8     5     2
 0.0000000040     1     8     5     3
 -0.0016937530     1     8     5     4
 0.0000000018     1     8     5     7
 0.0000000001     1     8     5    10
 -0.0009148950     1     8     5    11
 0.0385465722     1     8     6     1
 -0.0000000032     1     8     6     2
 -0.0025303787     1     8     6     3
 0.0000000008     1     8     6     4
 0.0019964298     1     8     6     7
 -0.0007249467     1     8     6    10
 0.0000000006     1     8     6    11
 0.0000000011     1     8     7     5
 0.0012164045     1     8     7     6
 0.0000000001     1     8     7     9
 -0.5074075264     1     8     8     1
 -0.0000000010     1     8     8     2
 0.0117096403     1     8     8     3
 -0.0000000063     1     8     8     4
 -0.0030972959     1     8     8     7
 0.0028986671     1     8     8    10
 -0.0000000021     1     8     8    11
 0.0000001159     1     8     9     1
 -0.1035750624     1     8     9     2
 -0.0000000052     1     8     9     3
 0.0056193680     1     8     9     4
 -0.0000000014     1     8     9     7
 -0.0000000006     1     8     9    10
 0.0024870045     1     8     9    11
 -0.0000000002     1     8    10     5
 -0.0000087144     1     8    10     6
 0.0000004180     1     8    11     5
 0.0000000001     1     8    11     6
 0.0002099937     1     8    11     9
 0.0002079459     1     9     2     6
 -0.0000111691     1     9     2     8
 -0.0003450515     1     9     3     5
 0.0000000012     1     9     3     6
 -0.0000000001     1     9     3     8
 0.0000000002     1     9     4     5
 0.0019620633     1     9     4     6
 -0.0001420055     1     9     4     8
 0.0211925066     1     9     5     1
 0.0000000016     1     9     5     2
 -0.0017151350     1     9     5     3
 0.0000000005     1     9     5     4
 0.0015553610     1     9     5     7
 -0.0005252521     1     9     5    10
 0.0000000004     1     9     5    11
 -0.0000000620     1     9     6     1
 0.0546714221     1     9     6     2
 0.0000000030     1     9     6     3
 -0.0007547686     1     9     6     4
 0.0000000014     1     9     6     7
 -0.0000000001     1     9     6    10
 -0.0005422833     1     9     6    11
 0.0009786476     1     9     7     5
 0.0000000009     1     9     7     6
 -0.0000000001     1     9     7     8
 0.0000001159     1     9     8     1
 -0.1035886931     1     9     8     2
 -0.0000000057     1     9     8     3
 0.0059798254     1     9     8     4
 -0.0000000017     1     9     8     7
 -0.0000000007     1     9     8    10
 0.0024501361     1     9     8    11
 -0.4411144171     1     9     9     1
 0.0000000008     1     9     9     2
 0.0080234106     1     9     9     3
 -0.0000000044     1     9     9     4
 -0.0020763976     1     9     9     7
 0.0017950302     1     9     9    10
 -0.0000000015     1     9     9    11
 -0.0001026928     1     9    10     5
 -0.0000000002     1     9    10     6
 0.0000696073     1     9    11     6
 -0.0002099937     1     9    11     8
 0.0000000013     1    10     2     1
 -0.0024024381     1    10     2     2
 0.0000644884     1    10     2     4
 0.0000204277     1    10     2    11
 -0.0336487043     1    10     3     1
 0.0000000002     1    10     3     2
 -0.0026557752     1    10     3     3
 -0.0000000003     1    10     3     4
 -0.0023106516     1    10     3     7
 0.0000000454     1    10     4     1
 -0.0402991111     1    10     4     2
 -0.0000000013     1    10     4     3
 -0.0001469930     1    10     4     4
 -0.0000000008     1    10     4     7
 -0.0000504980     1    10     4    11
 -0.0020519502     1    10     5     5
 -0.0000000003     1    10     5     6
 -0.0000000001     1    10     5     8
 0.0005252521     1    10     5     9
 -0.0000000002     1    10     6     5
 -0.0020484782     1    10     6     6
 0.0007249467     1    10     6     8
 0.0000000001     1    10     6     9
 0.0454337433     1    10     7     1
 -0.0000000001     1    10     7     2
 -0.0047160201     1    10     7     3
 0.0000000008     1    10     7     4
 -0.0041892180     1    10     7     7
 0.0000000001     1    10     7    11
 -0.0000000002     1    10     8     5
 0.0007289163     1    10     8     6
 -0.0028986671     1    10     8     8
 0.0000000007     1    10     8     9
 0.0004677297     1    10     9     5
 -0.0000000002     1    10     9     6
 0.0000000006     1    10     9     8
 -0.0017950302     1    10     9     9
 -0.2192320340     1    10    10     1
 0.0000000005     1    10    10     2
 0.0008513642     1    10    10     3
 -0.0000000003     1    10    10     4
 0.0003870202     1    10    10     7
 -0.0000000002     1    10    10    11
 0.0000000427     1    10    11     1
 -0.0381691346     1    10    11     2
 -0.0000000007     1    10    11     3
 -0.0004767213     1    10    11     4
 -0.0000000011     1    10    11     7
 -0.0001100111     1    10    11    11
 0.0014664465     1    11     2     1
 0.0000000008     1    11     2     2
 0.0000303471     1    11     2     3
 0.0001002480     1    11     2     7
 -0.0000204277     1    11     2    10
 0.0000000381     1    11     3     1
 -0.0342929693     1    11     3     2
 0.0000000008     1    11     3     3
 0.0002094456     1    11     3     4
 0.0000000007     1    11     3     7
 -0.0576295288     1    11     4     1
 -0.0000000003     1    11     4     2
 0.0011820833     1    11     4     3
 0.0004571580     1    11     4     7
 0.0000504980     1    11     4    10
 0.0000000014     1    11     5     5
 0.0011575034     1    11     5     6
 0.0009148950     1    11     5     8
 -0.0000000004     1    11     5     9
 0.0011466865     1    11     6     5
 0.0000000013     1    11     6     6
 -0.0000000006     1    11     6     8
 0.0005422833     1    11     6     9
 -0.0000000132     1    11     7     1
 0.0120653659     1    11     7     2
 0.0000000017     1    11     7     3
 -0.0001916592     1    11     7     4
 0.0000000022     1    11     7     7
 -0.0000000001     1    11     7    10
 0.0009610170     1    11     8     5
 -0.0000000005     1    11     8     6
 0.0000000021     1    11     8     8
 -0.0024501361     1    11     8     9
 -0.0000000004     1    11     9     5
 0.0006145755     1    11     9     6
 -0.0024870045     1    11     9     8
 0.0000000015     1    11     9     9
 0.0000000427     1    11    10     1
 -0.0381877723     1    11    10     2
 -0.0000000007     1    11    10     3
 -0.0004138214     1    11    10     4
 -0.0000000012     1    11    10     7
 0.0000000002     1    11    10    10
 -0.2135553655     1    11    11     1
 -0.0000000004     1    11    11     2
 0.0005955012     1    11    11     3
 -0.0000000001     1    11    11     4
 0.0004637888     1    11    11     7
 0.0001100111     1    11    11    10
 -0.3952120914     2     1     1     2
 -0.0000000025     2     1     1     3
 0.0051153633     2     1     1     4
 -0.0000000072     2     1     1     7
 0.0000000013     2     1     1    10
 0.0014664465     2     1     1    11
 -0.0044466786     2     1     3     2
 -0.0000000005     2     1     3     3
 0.1485896899     2     1     3     4
 -0.0000000002     2     1     3     7
 -0.0000000002     2     1     3    10
 0.0343132753     2     1     3    11
 -0.0000000029     2     1     4     2
 0.1484695678     2     1     4     3
 -0.0000000002     2     1     4     4
 -0.1321608154     2     1     4     7
 0.0403536494     2     1     4    10
 0.0000000003     2     1     4    11
 -0.0000000115     2     1     5     5
 -0.1463252722     2     1     5     6
 -0.0817250565     2     1     5     8
 -0.0000000016     2     1     5     9
 -0.1463343736     2     1     6     5
 0.0000000111     2     1     6     6
 0.0000000032     2     1     6     8
 -0.0544575149     2     1     6     9
 -0.0129316660     2     1     7     2
 -0.0000000002     2     1     7     3
 -0.1318192318     2     1     7     4
 0.0000000001     2     1     7    10
 -0.0119680302     2     1     7    11
 -0.0819825998     2     1     8     5
 0.0000000032     2     1     8     6
 0.0000000010     2     1     8     8
 0.1035750624     2     1     8     9
 -0.0000000016     2     1     9     5
 -0.0546714221     2     1     9     6
 0.1035886931     2     1     9     8
 -0.0000000008     2     1     9     9
 0.0024024381     2     1    10     2
 -0.0000000002     2     1    10     3
 0.0402991111     2     1    10     4
 0.0000000001     2     1    10     7
 -0.0000000005     2     1    10    10
 0.0381691346     2     1    10    11
 -0.0000000008     2     1    11     2
 0.0342929693     2     1    11     3
 0.0000000003     2     1    11     4
 -0.0120653659     2     1    11     7
 0.0381877723     2     1    11    10
 0.0000000004     2     1    11    11
 0.3952120914     2     2     1     1
 0.0044466786     2     2     1     3
 0.0000000029     2     2     1     4
 0.0129316660     2     2     1     7
 -0.0024024381     2     2     1    10
 0.0000000008     2     2     1    11
 0.0044466786     2     2     3     1
 0.6005366022     2     2     3     3
 0.0000001663     2     2     3     4
 0.1104696154     2     2     3     7
 0.0336027620     2     2     3    10
 0.0000000385     2     2     3    11
 0.0000000029     2     2     4     1
 0.0000001663     2     2     4     3
 0.4827952988     2     2     4     4
 -0.0000001471     2     2     4     7
 0.0000000448     2     2     4    10
 0.0575899617     2     2     4    11
 0.4809089658     2     2     5     5
 -0.0000001636     2     2     5     6
 -0.0000000930     2     2     5     8
 -0.0213682890     2     2     5     9
 -0.0000001636     2     2     6     5
 0.4806662049     2     2     6     6
 -0.0387959342     2     2     6     8
 -0.0000000600     2     2     6     9
 0.0129316660     2     2     7     1
 0.1104696154     2     2     7     3
 -0.0000001471     2     2     7     4
 0.5621573505     2     2     7     7
 -0.0455901875     2     2     7    10
 -0.0000000137     2     2     7    11
 -0.0000000930     2     2     8     5
 -0.0387959342     2     2     8     6
 0.5074178559     2     2     8     8
 0.0000001156     2     2     8     9
 -0.0213682890     2     2     9     5
 -0.0000000600     2     2     9     6
 0.0000001156     2     2     9     8
 0.4410992666     2     2     9     9
 -0.0024024381     2     2    10     1
 0.0336027620     2     2    10     3
 0.0000000448     2     2    10     4
 -0.0455901875     2     2    10     7
 0.2192652329     2     2    10    10
 0.0000000427     2     2    10    11
 0.0000000008     2     2    11     1
 0.0000000385     2     2    11     3
 0.0575899617     2     2    11     4
 -0.0000000137     2     2    11     7
 0.0000000427     2     2    11    10
 0.2135467814     2     2    11    11
 0.0000000025     2     3     1     1
 -0.0044466786     2     3     1     2
 0.0001207875     2     3     1     4
 0.0000303471     2     3     1    11
 0.0000000005     2     3     3     1
 -0.6005366022     2     3     3     2
 0.0039955844     2     3     3     4
 -0.0000000053     2     3     3     7
 0.0000000015     2     3     3    10
 0.0015608955     2     3     3    11
 -0.1484695678     2     3     4     1
 -0.0000001663     2     3     4     2
 -0.0000000029     2     3     4     4
 0.0110199585     2     3     4     7
 -0.0024160401     2     3     4    10
 -0.0000000007     2     3     4    11
 -0.0000000054     2     3     5     5
 0.0107915855     2     3     5     6
 0.0071940055     2     3     5     8
 0.0000000011     2     3     5     9
 0.0107130207     2     3     6     5
 -0.0000000070     2     3     6     6
 0.0000000012     2     3     6     8
 0.0052779160     2     3     6     9
 0.0000000002     2     3     7     1
 -0.1104696154     2     3     7     2
 0.0122077386     2     3     7     4
 -0.0000000100     2     3     7     7
 0.0000000026     2     3     7    10
 0.0032159986     2     3     7    11
 0.0044038848     2     3     8     5
 0.0000000010     2     3     8     6
 -0.0000000066     2     3     8     8
 -0.0102040310     2     3     8     9
 0.0000000007     2     3     9     5
 0.0025837578     2     3     9     6
 -0.0092957295     2     3     9     8
 -0.0000000044     2     3     9     9
 0.0000000002     2     3    10     1
 -0.0336027620     2     3    10     2
 -0.0016274682     2     3    10     4
 0.0000000012     2     3    10     7
 -0.0000000005     2     3    10    10
 -0.0012088814     2     3    10    11
 -0.0342929693     2     3    11     1
 -0.0000000385     2     3    11     2
 -0.0000000005     2     3    11     4
 0.0017317075     2     3    11     7
 -0.0012258431     2     3    11    10
 -0.0000000003     2     3    11    11
 -0.0051153633     2     4     1     1
 -0.0000000029     2     4     1     2
 -0.0001207875     2     4     1     3
 -0.0003418673     2     4     1     7
 0.0000644884     2     4     1    10
 -0.1485896899     2     4     3     1
 -0.0000001663     2     4     3     2
 -0.0039955844     2     4     3     3
 -0.0011841185     2     4     3     7
 -0.0005689314     2     4     3    10
 -0.0000000001     2     4     3    11
 0.0000000002     2     4     4     1
 -0.4827952988     2     4     4     2
 0.0000000029     2     4     4     3
 0.0000000014     2     4     4     7
 0.0000603241     2     4     4    11
 -0.0099712120     2     4     5     5
 0.0000000036     2     4     5     6
 0.0000000010     2     4     5     8
 0.0008490580     2     4     5     9
 0.0000000037     2     4     6     5
 -0.0099922468     2     4     6     6
 0.0012480941     2     4     6     8
 0.0000000003     2     4     6     9
 0.1318192318     2     4     7     1
 0.0000001471     2     4     7     2
 -0.0122077386     2     4     7     3
 -0.0161691406     2     4     7     7
 0.0014700956     2     4     7    10
 0.0000000002     2     4     7    11
 0.0000000022     2     4     8     5
 0.0009502098     2     4     8     6
 -0.0113890279     2     4     8     8
 -0.0000000034     2     4     8     9
 0.0005027843     2     4     9     5
 0.0000000013     2     4     9     6
 -0.0000000032     2     4     9     8
 -0.0078783624     2     4     9     9
 -0.0402991111     2     4    10     1
 -0.0000000448     2     4    10     2
 0.0016274682     2     4    10     3
 0.0024964914     2     4    10     7
 -0.0005931276     2     4    10    10
 0.0000000002     2     4    10    11
 -0.0000000003     2     4    11     1
 -0.0575899617     2     4    11     2
 0.0000000005     2     4    11     3
 0.0000000004     2     4    11     7
 0.0000000002     2     4    11    10
 -0.0000695788     2     4    11    11
 0.0000076752     2     5     1     6
 0.0002534486     2     5     1     8
 0.0000866164     2     5     3     6
 0.0027370168     2     5     3     8
 0.0000000003     2     5     3     9
 -0.0000000013     2     5     4     8
 0.0002882111     2     5     4     9
 0.0000000115     2     5     5     1
 -0.4809089658     2     5     5     2
 0.0000000054     2     5     5     3
 0.0099712120     2     5     5     4
 -0.0000000023     2     5     5     7
 0.0000000011     2     5     5    10
 0.0024321358     2     5     5    11
 0.1463343736     2     5     6     1
 0.0000001636     2     5     6     2
 -0.0107130207     2     5     6     3
 -0.0000000037     2     5     6     4
 -0.0032230498     2     5     6     7
 -0.0005019443     2     5     6    10
 -0.0000000007     2     5     6    11
 -0.0000149910     2     5     7     6
 0.0018092501     2     5     7     8
 -0.0000000005     2     5     7     9
 0.0819825998     2     5     8     1
 0.0000000930     2     5     8     2
 -0.0044038848     2     5     8     3
 -0.0000000022     2     5     8     4
 -0.0011043757     2     5     8     7
 -0.0004132149     2     5     8    10
 -0.0000000006     2     5     8    11
 0.0000000016     2     5     9     1
 0.0213682890     2     5     9     2
 -0.0000000007     2     5     9     3
 -0.0005027843     2     5     9     4
 0.0000000003     2     5     9     7
 -0.0000000003     2     5     9    10
 -0.0007009214     2     5     9    11
 -0.0000035801     2     5    10     6
 -0.0002920611     2     5    10     8
 0.0000812701     2     5    11     9
 -0.0000076752     2     6     1     5
 0.0002079459     2     6     1     9
 -0.0000866164     2     6     3     5
 0.0000000001     2     6     3     8
 0.0022184836     2     6     3     9
 0.0002809772     2     6     4     8
 -0.0000000011     2     6     4     9
 0.1463252722     2     6     5     1
 0.0000001636     2     6     5     2
 -0.0107915855     2     6     5     3
 -0.0000000036     2     6     5     4
 -0.0031884994     2     6     5     7
 -0.0005093660     2     6     5    10
 -0.0000000007     2     6     5    11
 -0.0000000111     2     6     6     1