&FCI NORB=  9,NELEC= 10,MS2=0,
 ORBSYM=1,1,1,1,1,1,1,1,1
 ISYM=1,
&END
 0.9850836742     1     1     2     2
 0.0664359438     1     1     2     4
 0.0835777626     1     1     2     6
 0.0505312217     1     1     2     8
 0.8724371688     1     1     3     3
 -0.0870436085     1     1     3     7
 0.0664359438     1     1     4     2
 0.9481971217     1     1     4     4
 -0.0450732012     1     1     4     6
 0.0966397927     1     1     4     8
 0.9939561173     1     1     5     5
 0.1637272434     1     1     5     9
 0.0835777626     1     1     6     2
 -0.0450732012     1     1     6     4
 0.2482140357     1     1     6     6
 0.0195010843     1     1     6     8
 -0.0870436085     1     1     7     3
 0.2102962037     1     1     7     7
 0.0000000002     1     1     7     8
 0.0505312217     1     1     8     2
 0.0966397927     1     1     8     4
 0.0195010843     1     1     8     6
 0.0000000002     1     1     8     7
 0.2760034681     1     1     8     8
 0.1637272434     1     1     9     5
 0.3216355796     1     1     9     9
 -0.9850836742     1     2     2     1
 0.0071078487     1     2     2     4
 -0.0007820721     1     2     2     6
 0.0018242516     1     2     2     8
 -0.0313733598     1     2     3     3
 0.0065756247     1     2     3     7
 -0.0664359438     1     2     4     1
 -0.0359925750     1     2     4     4
 0.0044682350     1     2     4     6
 -0.0061348018     1     2     4     8
 -0.0407793407     1     2     5     5
 -0.0125965561     1     2     5     9
 -0.0835777626     1     2     6     1
 0.0041333231     1     2     6     4
 -0.0007226351     1     2     6     6
 0.0007648384     1     2     6     8
 0.0047206478     1     2     7     3
 -0.0013579712     1     2     7     7
 0.0000000001     1     2     7     8
 -0.0505312217     1     2     8     1
 -0.0042580957     1     2     8     4
 0.0004887847     1     2     8     6
 0.0000000001     1     2     8     7
 -0.0015000322     1     2     8     8
 -0.0094525414     1     2     9     5
 -0.0044727409     1     2     9     9
 0.0012876291     1     3     2     7
 -0.8724371688     1     3     3     1
 0.0313733598     1     3     3     2
 0.0106233643     1     3     3     4
 0.0029930504     1     3     3     6
 0.0036223125     1     3     3     8
 -0.0004657194     1     3     4     7
 -0.0012430671     1     3     6     7
 0.0870436085     1     3     7     1
 -0.0047206478     1     3     7     2
 -0.0016237472     1     3     7     4
 -0.0019955205     1     3     7     6
 -0.0012388652     1     3     7     8
 -0.0006707510     1     3     8     7
 -0.0664359438     1     4     2     1
 -0.0071078487     1     4     2     2
 -0.0001287581     1     4     2     6
 -0.0013274236     1     4     2     8
 -0.0106233643     1     4     3     3
 0.0012872887     1     4     3     7
 -0.9481971217     1     4     4     1
 0.0359925750     1     4     4     2
 0.0056685134     1     4     4     6
 0.0026980230     1     4     4     8
 -0.0136396954     1     4     5     5
 -0.0039650021     1     4     5     9
 0.0450732012     1     4     6     1
 -0.0041333231     1     4     6     2
 -0.0020252029     1     4     6     6
 0.0005538540     1     4     6     8
 0.0016237472     1     4     7     3
 -0.0010036141     1     4     7     7
 0.0000000001     1     4     7     8
 -0.0966397927     1     4     8     1
 0.0042580957     1     4     8     2
 0.0018660811     1     4     8     6
 0.0000000001     1     4     8     7
 0.0016770544     1     4     8     8
 -0.0032425903     1     4     9     5
 -0.0014676019     1     4     9     9
 -0.0020105086     1     5     2     9
 -0.0004243402     1     5     4     9
 -0.9939561173     1     5     5     1
 0.0407793407     1     5     5     2
 0.0136396954     1     5     5     4
 0.0052515093     1     5     5     6
 0.0063734318     1     5     5     8
 0.0017759490     1     5     6     9
 0.0001975931     1     5     8     9
 -0.1637272434     1     5     9     1
 0.0094525414     1     5     9     2
 0.0032425903     1     5     9     4
 0.0034909300     1     5     9     6
 0.0022110082     1     5     9     8
 -0.0835777626     1     6     2     1
 0.0007820721     1     6     2     2
 0.0001287581     1     6     2     4
 0.0002937833     1     6     2     8
 -0.0029930504     1     6     3     3
 0.0007496171     1     6     3     7
 0.0450732012     1     6     4     1
 -0.0044682350     1     6     4     2
 -0.0056685134     1     6     4     4
 -0.0013023943     1     6     4     8
 -0.0052515093     1     6     5     5
 -0.0016420019     1     6     5     9
 -0.2482140357     1     6     6     1
 0.0007226351     1     6     6     2
 0.0020252029     1     6     6     4
 0.0002996128     1     6     6     8
 0.0019955205     1     6     7     3
 -0.0003901239     1     6     7     7
 -0.0195010843     1     6     8     1
 -0.0004887847     1     6     8     2
 -0.0018660811     1     6     8     4
 -0.0006555450     1     6     8     8
 -0.0034909300     1     6     9     5
 -0.0012802860     1     6     9     9
 -0.0012876291     1     7     2     3
 0.0870436085     1     7     3     1
 -0.0065756247     1     7     3     2
 -0.0012872887     1     7     3     4
 -0.0007496171     1     7     3     6
 -0.0005940335     1     7     3     8
 0.0004657194     1     7     4     3
 0.0012430671     1     7     6     3
 -0.2102962037     1     7     7     1
 0.0013579712     1     7     7     2
 0.0010036141     1     7     7     4
 0.0003901239     1     7     7     6
 0.0004033071     1     7     7     8
 -0.0000000002     1     7     8     1
 -0.0000000001     1     7     8     2
 0.0006707510     1     7     8     3
 -0.0000000001     1     7     8     4
 -0.0505312217     1     8     2     1
 -0.0018242516     1     8     2     2
 0.0013274236     1     8     2     4
 -0.0002937833     1     8     2     6
 -0.0036223125     1     8     3     3
 0.0005940335     1     8     3     7
 -0.0966397927     1     8     4     1
 0.0061348018     1     8     4     2
 -0.0026980230     1     8     4     4
 0.0013023943     1     8     4     6
 -0.0063734318     1     8     5     5
 -0.0019781255     1     8     5     9
 -0.0195010843     1     8     6     1
 -0.0007648384     1     8     6     2
 -0.0005538540     1     8     6     4
 -0.0002996128     1     8     6     6
 -0.0000000002     1     8     7     1
 -0.0000000001     1     8     7     2
 0.0012388652     1     8     7     3
 -0.0000000001     1     8     7     4
 -0.0004033071     1     8     7     7
 -0.2760034681     1     8     8     1
 0.0015000322     1     8     8     2
 -0.0016770544     1     8     8     4
 0.0006555450     1     8     8     6
 -0.0022110082     1     8     9     5
 -0.0008523997     1     8     9     9
 0.0020105086     1     9     2     5
 0.0004243402     1     9     4     5
 -0.1637272434     1     9     5     1
 0.0125965561     1     9     5     2
 0.0039650021     1     9     5     4
 0.0016420019     1     9     5     6
 0.0019781255     1     9     5     8
 -0.0017759490     1     9     6     5
 -0.0001975931     1     9     8     5
 -0.3216355796     1     9     9     1
 0.0044727409     1     9     9     2
 0.0014676019     1     9     9     4
 0.0012802860     1     9     9     6
 0.0008523997     1     9     9     8
 -0.9850836742     2     1     1     2
 -0.0664359438     2     1     1     4
 -0.0835777626     2     1     1     6
 -0.0505312217     2     1     1     8
 -0.0313733598     2     1     3     3
 0.0047206478     2     1     3     7
 0.0071078487     2     1     4     2
 -0.0359925750     2     1     4     4
 0.0041333231     2     1     4     6
 -0.0042580957     2     1     4     8
 -0.0407793407     2     1     5     5
 -0.0094525414     2     1     5     9
 -0.0007820721     2     1     6     2
 0.0044682350     2     1     6     4
 -0.0007226351     2     1     6     6
 0.0004887847     2     1     6     8
 0.0065756247     2     1     7     3
 -0.0013579712     2     1     7     7
 0.0018242516     2     1     8     2
 -0.0061348018     2     1     8     4
 0.0007648384     2     1     8     6
 -0.0015000322     2     1     8     8
 -0.0125965561     2     1     9     5
 -0.0044727409     2     1     9     9
 0.9850836742     2     2     1     1
 -0.0071078487     2     2     1     4
 0.0007820721     2     2     1     6
 -0.0018242516     2     2     1     8
 0.5293005332     2     2     3     3
 -0.0378436598     2     2     3     7
 -0.0071078487     2     2     4     1
 0.5502154710     2     2     4     4
 -0.0194826268     2     2     4     6
 0.0427351018     2     2     4     8
 0.5769017067     2     2     5     5
 0.0714991855     2     2     5     9
 0.0007820721     2     2     6     1
 -0.0194826268     2     2     6     4
 0.2316057028     2     2     6     6
 -0.0000000002     2     2     6     7
 0.0116370920     2     2     6     8
 -0.0378436598     2     2     7     3
 -0.0000000002     2     2     7     6
 0.1998487622     2     2     7     7
 -0.0000000010     2     2     7     8
 -0.0018242516     2     2     8     1
 0.0427351018     2     2     8     4
 0.0116370920     2     2     8     6
 -0.0000000010     2     2     8     7
 0.2478373718     2     2     8     8
 0.0714991855     2     2     9     5
 0.2770302422     2     2     9     9
 -0.0012876291     2     3     1     7
 0.0313733598     2     3     3     1
 -0.5293005332     2     3     3     2
 -0.0016221836     2     3     3     4
 -0.0390951301     2     3     3     6
 -0.0226703804     2     3     3     8
 -0.0039344680     2     3     4     7
 0.0000000001     2     3     6     6
 -0.0205173860     2     3     6     7
 0.0000000004     2     3     6     8
 -0.0065756247     2     3     7     1
 0.0378436598     2     3     7     2
 -0.0010003009     2     3     7     4
 -0.0157193573     2     3     7     6
 -0.0042115794     2     3     7     8
 0.0000000004     2     3     8     6
 -0.0073068065     2     3     8     7
 -0.0000000004     2     3     8     8
 0.0664359438     2     4     1     1
 0.0071078487     2     4     1     2
 0.0001287581     2     4     1     6
 0.0013274236     2     4     1     8
 0.0016221836     2     4     3     3
 -0.0031976599     2     4     3     7
 0.0359925750     2     4     4     1
 -0.5502154710     2     4     4     2
 -0.0391919238     2     4     4     6
 -0.0174352265     2     4     4     8
 0.0037034815     2     4     5     5
 0.0016014398     2     4     5     9
 -0.0044682350     2     4     6     1
 0.0194826268     2     4     6     2
 -0.0092421061     2     4     6     6
 -0.0000000001     2     4     6     7
 0.0136012247     2     4     6     8
 0.0010003009     2     4     7     3
 -0.0000000001     2     4     7     6
 -0.0069520048     2     4     7     7
 -0.0000000004     2     4     7     8
 0.0061348018     2     4     8     1
 -0.0427351018     2     4     8     2
 0.0070956316     2     4     8     6
 -0.0000000004     2     4     8     7
 0.0139056843     2     4     8     8
 0.0000256932     2     4     9     5
 0.0031547498     2     4     9     9
 0.0020105086     2     5     1     9
 0.0008774631     2     5     4     9
 0.0407793407     2     5     5     1
 -0.5769017067     2     5     5     2
 -0.0037034815     2     5     5     4
 -0.0389991897     2     5     5     6
 -0.0150784371     2     5     5     8
 0.0186538793     2     5     6     9
 0.0022306526     2     5     8     9
 0.0125965561     2     5     9     1
 -0.0714991855     2     5     9     2
 -0.0000256932     2     5     9     4
 0.0100376989     2     5     9     6
 -0.0016700005     2     5     9     8
 0.0835777626     2     6     1     1
 -0.0007820721     2     6     1     2
 -0.0001287581     2     6     1     4
 -0.0002937833     2     6     1     8
 0.0390951301     2     6     3     3
 -0.0049112608     2     6     3     7
 -0.0041333231     2     6     4     1
 0.0194826268     2     6     4     2
 0.0391919238     2     6     4     4
 0.0065671634     2     6     4     8
 0.0389991897     2     6     5     5
 0.0086871062     2     6     5     9
 0.0007226351     2     6     6     1
 -0.2316057028     2     6     6     2
 -0.0000000001     2     6     6     3
 0.0092421061     2     6     6     4
 -0.0000000001     2     6     6     7
 -0.0006878980     2     6     6     8
 0.0000000002     2     6     7     2
 0.0157193573     2     6     7     3
 0.0000000001     2     6     7     4
 0.0019167830     2     6     7     7
 0.0000000002     2     6     7     8
 -0.0007648384     2     6     8     1
 -0.0116370920     2     6     8     2
 -0.0000000004     2     6     8     3
 -0.0070956316     2     6     8     4
 -0.0000000003     2     6     8     7
 0.0040323654     2     6     8     8
 -0.0100376989     2     6     9     5
 0.0061806001     2     6     9     9
 0.0012876291     2     7     1     3
 -0.0047206478     2     7     3     1
 0.0378436598     2     7     3     2
 0.0031976599     2     7     3     4
 0.0049112608     2     7     3     6
 0.0030566010     2     7     3     8
 0.0039344680     2     7     4     3
 -0.0000000001     2     7     4     8
 0.0000000002     2     7     6     2
 0.0205173860     2     7     6     3
 0.0000000001     2     7     6     4
 0.0000000001     2     7     6     6
 0.0000000005     2     7     6     8
 0.0013579712     2     7     7     1
 -0.1998487622     2     7     7     2
 0.0069520048     2     7     7     4
 -0.0019167830     2     7     7     6
 -0.0000207639     2     7     7     8
 0.0000000010     2     7     8     2
 0.0073068065     2     7     8     3
 0.0000000004     2     7     8     4
 0.0000000003     2     7     8     6
 -0.0000000001     2     7     8     8
 0.0505312217     2     8     1     1
 0.0018242516     2     8     1     2
 -0.0013274236     2     8     1     4
 0.0002937833     2     8     1     6
 0.0226703804     2     8     3     3
 -0.0030566010     2     8     3     7
 0.0042580957     2     8     4     1
 -0.0427351018     2     8     4     2
 0.0174352265     2     8     4     4
 -0.0065671634     2     8     4     6
 0.0000000001     2     8     4     7
 0.0150784371     2     8     5     5
 0.0039536013     2     8     5     9
 -0.0004887847     2     8     6     1
 -0.0116370920     2     8     6     2
 -0.0000000004     2     8     6     3
 -0.0136012247     2     8     6     4
 0.0006878980     2     8     6     6
 -0.0000000005     2     8     6     7
 0.0000000010     2     8     7     2
 0.0042115794     2     8     7     3
 0.0000000004     2     8     7     4
 -0.0000000002     2     8     7     6
 0.0000207639     2     8     7     7
 0.0015000322     2     8     8     1
 -0.2478373718     2     8     8     2
 0.0000000004     2     8     8     3
 -0.0139056843     2     8     8     4
 -0.0040323654     2     8     8     6
 0.0000000001     2     8     8     7
 0.0016700005     2     8     9     5
 0.0027431352     2     8     9     9
 -0.0020105086     2     9     1     5
 -0.0008774631     2     9     4     5
 0.0094525414     2     9     5     1
 -0.0714991855     2     9     5     2
 -0.0016014398     2     9     5     4
 -0.0086871062     2     9     5     6
 -0.0039536013     2     9     5     8
 -0.0186538793     2     9     6     5
 -0.0022306526     2     9     8     5
 0.0044727409     2     9     9     1
 -0.2770302422     2     9     9     2
 -0.0031547498     2     9     9     4
 -0.0061806001     2     9     9     6
 -0.0027431352     2     9     9     8
 -0.8724371688     3     1     1     3
 0.0870436085     3     1     1     7
 0.0313733598     3     1     2     3
 -0.0047206478     3     1     2     7
 0.0106233643     3     1     4     3
 -0.0016237472     3     1     4     7
 0.0029930504     3     1     6     3
 -0.0019955205     3     1     6     7
 0.0012876291     3     1     7     2
 -0.0004657194     3     1     7     4
 -0.0012430671     3     1     7     6
 -0.0006707510     3     1     7     8
 0.0036223125     3     1     8     3
 -0.0012388652     3     1     8     7
 0.0313733598     3     2     1     3
 -0.0065756247     3     2     1     7
 -0.5293005332     3     2     2     3
 0.0378436598     3     2     2     7
 -0.0016221837     3     2     4     3
 -0.0010003009     3     2     4     7
 -0.0390951301     3     2     6     3
 0.0000000001     3     2     6     6
 -0.0157193573     3     2     6     7
 0.0000000004     3     2     6     8
 -0.0012876291     3     2     7     1
 -0.0039344680     3     2     7     4
 -0.0205173860     3     2     7     6
 -0.0073068065     3     2     7     8
 -0.0226703804     3     2     8     3
 0.0000000004     3     2     8     6
 -0.0042115794     3     2     8     7
 -0.0000000004     3     2     8     8
 0.8724371688     3     3     1     1
 -0.0313733598     3     3     1     2
 -0.0106233643     3     3     1     4
 -0.0029930504     3     3     1     6
 -0.0036223125     3     3     1     8
 -0.0313733598     3     3     2     1
 0.5293005332     3     3     2     2
 0.0016221836     3     3     2     4
 0.0390951301     3     3     2     6
 0.0226703804     3     3     2     8
 -0.0106233643     3     3     4     1
 0.0016221837     3     3     4     2
 0.5626605314     3     3     4     4
 -0.0218736890     3     3     4     6
 0.0437931862     3     3     4     8
 0.5857148064     3     3     5     5
 0.0745181548     3     3     5     9
 -0.0029930504     3     3     6     1
 0.0390951301     3     3     6     2
 -0.0218736890     3     3     6     4
 0.2334800146     3     3     6     6
 0.0124579591     3     3     6     8
 0.1972412688     3     3     7     7
 0.0000000002     3     3     7     8
 -0.0036223125     3     3     8     1
 0.0226703804     3     3     8     2
 0.0437931862     3     3     8     4
 0.0124579591     3     3     8     6
 0.0000000002     3     3     8     7
 0.2439950480     3     3     8     8
 0.0745181548     3     3     9     5
 0.2709229005     3     3     9     9
 0.0106233643     3     4     1     3
 -0.0012872887     3     4     1     7
 -0.0016221836     3     4     2     3
 0.0031976599     3     4     2     7
 -0.5626605314     3     4     4     3
 0.0449098359     3     4     4     7
 0.0218736890     3     4     6     3
 0.0020322880     3     4     6     7
 -0.0000000001     3     4     6     8
 0.0004657194     3     4     7     1
 0.0039344680     3     4     7     2
 0.0051644998     3     4     7     6
 -0.0010804337     3     4     7     8
 -0.0437931862     3     4     8     3
 -0.0000000001     3     4     8     6
 0.0056457674     3     4     8     7
 -0.5857148064     3     5     5     3
 0.0461052034     3     5     5     7
 -0.0021512928     3     5     7     9
 -0.0745181548     3     5     9     3
 0.0085623797     3     5     9     7
 0.0029930504     3     6     1     3
 -0.0007496171     3     6     1     7
 -0.0390951301     3     6     2     3
 0.0049112608     3     6     2     7
 0.0218736890     3     6     4     3
 -0.0034360930     3     6     4     7
 0.0000000002     3     6     4     8
 -0.0000000001     3     6     6     2
 -0.2334800146     3     6     6     3
 0.0104542448     3     6     6     7
 0.0000000001     3     6     6     8
 0.0012430671     3     6     7     1
 0.0205173860     3     6     7     2
 -0.0051644998     3     6     7     4
 -0.0042125848     3     6     7     8
 -0.0000000004     3     6     8     2
 -0.0124579591     3     6     8     3
 0.0000000001     3     6     8     4
 0.0033374085     3     6     8     7
 -0.0870436085     3     7     1     1
 0.0065756247     3     7     1     2
 0.0012872887     3     7     1     4
 0.0007496171     3     7     1     6
 0.0005940335     3     7     1     8
 0.0047206478     3     7     2     1
 -0.0378436598     3     7     2     2
 -0.0031976599     3     7     2     4
 -0.0049112608     3     7     2     6
 -0.0030566010     3     7     2     8
 0.0016237472     3     7     4     1
 0.0010003009     3     7     4     2
 -0.0449098359     3     7     4     4
 0.0034360930     3     7     4     6
 -0.0069980955     3     7     4     8
 -0.0461052034     3     7     5     5
 -0.0108895782     3     7     5     9
 0.0019955205     3     7     6     1
 0.0157193573     3     7     6     2
 -0.0020322880     3     7     6     4
 -0.0104542448     3     7     6     6
 -0.0075550170     3     7     6     8
 -0.1972412688     3     7     7     3
 -0.0000000001     3     7     7     8
 0.0012388652     3     7     8     1
 0.0042115794     3     7     8     2
 -0.0000000002     3     7     8     3
 -0.0056457674     3     7     8     4
 -0.0033374085     3     7     8     6
 -0.0096776484     3     7     8     8
 -0.0085623797     3     7     9     5
 -0.0099402366     3     7     9     9
 0.0036223125     3     8     1     3
 -0.0005940335     3     8     1     7
 -0.0226703804     3     8     2     3
 0.0030566010     3     8     2     7
 -0.0437931862     3     8     4     3
 -0.0000000002     3     8     4     6
 0.0069980955     3     8     4     7
 -0.0000000004     3     8     6     2
 -0.0124579591     3     8     6     3
 0.0000000001     3     8     6     4
 -0.0000000001     3     8     6     6
 0.0075550170     3     8     6     7
 0.0006707510     3     8     7     1
 0.0073068065     3     8     7     2
 -0.0000000002     3     8     7     3
 0.0010804337     3     8     7     4
 0.0042125848     3     8     7     6
 0.0000000001     3     8     7     7
 0.0000000004     3     8     8     2
 -0.2439950480     3     8     8     3
 0.0096776484     3     8     8     7
 -0.0745181548     3     9     5     3
 0.0108895782     3     9     5     7
 0.0021512928     3     9     7     5
 -0.2709229005     3     9     9     3
 0.0099402366     3     9     9     7
 -0.0664359438     4     1     1     2
 -0.9481971217     4     1     1     4
 0.0450732012     4     1     1     6
 -0.0966397927     4     1     1     8
 -0.0071078487     4     1     2     2
 0.0359925750     4     1     2     4
 -0.0041333231     4     1     2     6
 0.0042580957     4     1     2     8
 -0.0106233643     4     1     3     3
 0.0016237472     4     1     3     7
 -0.0136396954     4     1     5     5
 -0.0032425903     4     1     5     9
 -0.0001287581     4     1     6     2
 0.0056685134     4     1     6     4
 -0.0020252029     4     1     6     6
 0.0018660811     4     1     6     8
 0.0012872887     4     1     7     3
 -0.0010036141     4     1     7     7
 0.0000000001     4     1     7     8
 -0.0013274236     4     1     8     2
 0.0026980230     4     1     8     4
 0.0005538540     4     1     8     6
 0.0000000001     4     1     8     7
 0.0016770544     4     1     8     8
 -0.0039650021     4     1     9     5
 -0.0014676019     4     1     9     9
 0.0664359438     4     2     1     1
 0.0359925750     4     2     1     4
 -0.0044682350     4     2     1     6
 0.0061348018     4     2     1     8
 0.0071078487     4     2     2     1
 -0.5502154710     4     2     2     4
 0.0194826268     4     2     2     6
 -0.0427351018     4     2     2     8
 0.0016221837     4     2     3     3
 0.0010003009     4     2     3     7
 0.0037034815     4     2     5     5
 0.0000256932     4     2     5     9
 0.0001287581     4     2     6     1
 -0.0391919238     4     2     6     4
 -0.0092421061     4     2     6     6
 -0.0000000001     4     2     6     7
 0.0070956316     4     2     6     8
 -0.0031976599     4     2     7     3
 -0.0000000001     4     2     7     6
 -0.0069520048     4     2     7     7
 -0.0000000003     4     2     7     8
 0.0013274236     4     2     8     1
 -0.0174352265     4     2     8     4
 0.0136012247     4     2     8     6
 -0.0000000004     4     2     8     7
 0.0139056843     4     2     8     8
 0.0016014398     4     2     9     5
 0.0031547498     4     2     9     9
 0.0004657194     4     3     1     7
 0.0039344680     4     3     2     7
 0.0106233643     4     3     3     1
 -0.0016221837     4     3     3     2
 -0.5626605314     4     3     3     4
 0.0218736890     4     3     3     6
 -0.0437931862     4     3     3     8
 0.0051644998     4     3     6     7
 -0.0000000001     4     3     6     8
 -0.0012872887     4     3     7     1
 0.0031976599     4     3     7     2
 0.0449098359     4     3     7     4
 0.0020322880     4     3     7     6
 0.0056457674     4     3     7     8
 -0.0000000001     4     3     8     6
 -0.0010804337     4     3     8     7
 0.9481971217     4     4     1     1
 -0.0359925750     4     4     1     2
 -0.0056685134     4     4     1     6
 -0.0026980230     4     4     1     8
 -0.0359925750     4     4     2     1
 0.5502154710     4     4     2     2
 0.0391919238     4     4     2     6
 0.0174352265     4     4     2     8
 0.5626605314     4     4     3     3
 -0.0449098359     4     4     3     7
 0.6032739422     4     4     5     5
 0.0786433569     4     4     5     9
 -0.0056685134     4     4     6     1
 0.0391919238     4     4     6     2
 0.2241415766     4     4     6     6
 -0.0000000002     4     4     6     7
 0.0214871548     4     4     6     8
 -0.0449098359     4     4     7     3
 -0.0000000002     4     4     7     6
 0.1947330867     4     4     7     7
 -0.0000000007     4     4     7     8
 -0.0026980230     4     4     8     1
 0.0174352265     4     4     8     2
 0.0214871548     4     4     8     6
 -0.0000000007     4     4     8     7
 0.2523307562     4     4     8     8
 0.0786433569     4     4     9     5
 0.2743886164     4     4     9     9
 0.0004243402     4     5     1     9
 -0.0008774631     4     5     2     9
 0.0136396954     4     5     5     1
 -0.0037034815     4     5     5     2
 -0.6032739422     4     5     5     4
 0.0248578963     4     5     5     6
 0.0000000001     4     5     5     7
 -0.0480453888     4     5     5     8
 0.0034008856     4     5     6     9
 0.0032519991     4     5     8     9
 0.0039650021     4     5     9     1
 -0.0016014398     4     5     9     2
 -0.0786433569     4     5     9     4
 0.0095465078     4     5     9     6
 -0.0077487102     4     5     9     8
 -0.0450732012     4     6     1     1
 0.0044682350     4     6     1     2
 0.0056685134     4     6     1     4
 0.0013023943     4     6     1     8
 0.0041333231     4     6     2     1
 -0.0194826268     4     6     2     2
 -0.0391919238     4     6     2     4
 -0.0065671634     4     6     2     8
 -0.0218736890     4     6     3     3
 0.0034360930     4     6     3     7
 -0.0000000002     4     6     3     8
 -0.0248578963     4     6     5     5
 -0.0062594595     4     6     5     9
 0.0020252029     4     6     6     1
 0.0092421061     4     6     6     2
 -0.2241415766     4     6     6     4
 -0.0116034418     4     6     6     8
 0.0000000001     4     6     7     2
 -0.0020322880     4     6     7     3
 0.0000000002     4     6     7     4
 -0.0013561439     4     6     7     7
 0.0000000011     4     6     7     8
 -0.0005538540     4     6     8     1
 -0.0136012247     4     6     8     2
 0.0000000001     4     6     8     3
 -0.0214871548     4     6     8     4
 0.0000000001     4     6     8     7
 -0.0068792172     4     6     8     8
 -0.0095465078     4     6     9     5
 -0.0061113564     4     6     9     9
 -0.0004657194     4     7     1     3
 -0.0039344680     4     7     2     3
 0.0000000001     4     7     2     8
 -0.0016237472     4     7     3     1
 -0.0010003009     4     7     3     2
 0.0449098359     4     7     3     4
 -0.0034360930     4     7     3     6
 0.0069980955     4     7     3     8
 -0.0000000001     4     7     5     5
 0.0000000001     4     7     6     2
 -0.0051644998     4     7     6     3
 0.0000000002     4     7     6     4
 0.0000000010     4     7     6     8
 0.0010036141     4     7     7     1
 0.0069520048     4     7     7     2
 -0.1947330867     4     7     7     4
 0.0013561439     4     7     7     6
 -0.0049528415     4     7     7     8
 -0.0000000001     4     7     8     1
 0.0000000004     4     7     8     2
 0.0010804337     4     7     8     3
 0.0000000007     4     7     8     4
 -0.0000000001     4     7     8     6
 0.0000000006     4     7     8     8
 0.0000000001     4     7     9     9
 0.0966397927     4     8     1     1
 -0.0061348018     4     8     1     2
 0.0026980230     4     8     1     4
 -0.0013023943     4     8     1     6
 -0.0042580957     4     8     2     1
 0.0427351018     4     8     2     2
 -0.0174352265     4     8     2     4
 0.0065671634     4     8     2     6
 -0.0000000001     4     8     2     7
 0.0437931862     4     8     3     3
 0.0000000002     4     8     3     6
 -0.0069980955     4     8     3     7
 0.0480453888     4     8     5     5
 0.0106202198     4     8     5     9
 -0.0018660811     4     8     6     1
 -0.0070956316     4     8     6     2
 0.0000000001     4     8     6     3
 -0.0214871548     4     8     6     4
 0.0116034418     4     8     6     6
 -0.0000000010     4     8     6     7
 -0.0000000001     4     8     7     1
 0.0000000003     4     8     7     2
 -0.0056457674     4     8     7     3
 0.0000000007     4     8     7     4
 -0.0000000011     4     8     7     6
 0.0049528415     4     8     7     7
 -0.0016770544     4     8     8     1
 -0.0139056843     4     8     8     2
 -0.2523307562     4     8     8     4
 0.0068792172     4     8     8     6
 -0.0000000006     4     8     8     7
 0.0077487102     4     8     9     5
 0.0097928616     4     8     9     9
 -0.0004243402     4     9     1     5
 0.0008774631     4     9     2     5
 0.0032425903     4     9     5     1
 -0.0000256932     4     9     5     2
 -0.0786433569     4     9     5     4
 0.0062594595     4     9     5     6
 -0.0106202198     4     9     5     8
 -0.0034008856     4     9     6     5
 -0.0032519991     4     9     8     5
 0.0014676019     4     9     9     1
 -0.0031547498     4     9     9     2
 -0.2743886164     4     9     9     4
 0.0061113564     4     9     9     6
 -0.0000000001     4     9     9     7