&FCI NORB= 16,NELEC= 10,MS2=0,
 ORBSYM=1,1,1,1,1,1,1,1,1,1,1,1,1,1,1,1
 ISYM=1,
&END
 0.9851092197     1     1     2     2
 -0.0682573250     1     1     2     4
 -0.1306461963     1     1     2     6
 -0.0359379348     1     1     2     9
 0.1120480697     1     1     2    10
 0.0753834418     1     1     2    12
 -0.1761664697     1     1     2    16
 0.8702222870     1     1     3     3
 -0.1529740941     1     1     3     7
 -0.0809753038     1     1     3     8
 -0.2391730930     1     1     3    13
 -0.0682573250     1     1     4     2
 0.9530712013     1     1     4     4
 -0.0699193617     1     1     4     6
 0.1715063401     1     1     4     9
 0.1670692362     1     1     4    10
 0.0532087787     1     1     4    12
 0.1272642367     1     1     4    16
 1.0009251690     1     1     5     5
 0.3028175513     1     1     5    11
 -0.0434270306     1     1     5    15
 -0.1306461963     1     1     6     2
 -0.0699193617     1     1     6     4
 0.3152169717     1     1     6     6
 -0.0074413170     1     1     6     9
 -0.1150662519     1     1     6    10
 -0.0618691180     1     1     6    12
 0.0835964650     1     1     6    16
 -0.1529740941     1     1     7     3
 0.2836071039     1     1     7     7
 0.0650419128     1     1     7     8
 0.1473413987     1     1     7    13
 -0.0809753038     1     1     8     3
 0.0650419128     1     1     8     7
 0.3887816924     1     1     8     8
 0.0792821146     1     1     8    13
 -0.0359379348     1     1     9     2
 0.1715063401     1     1     9     4
 -0.0074413170     1     1     9     6
 0.3820766723     1     1     9     9
 0.0348772771     1     1     9    10
 0.0247149343     1     1     9    12
 0.0696233427     1     1     9    16
 0.1120480697     1     1    10     2
 0.1670692362     1     1    10     4
 -0.1150662519     1     1    10     6
 0.0348772771     1     1    10     9
 0.4564706128     1     1    10    10
 0.0437072293     1     1    10    12
 0.0055539537     1     1    10    16
 0.3028175513     1     1    11     5
 0.5389683616     1     1    11    11
 -0.0394000535     1     1    11    15
 0.0753834418     1     1    12     2
 0.0532087787     1     1    12     4
 -0.0618691180     1     1    12     6
 0.0247149343     1     1    12     9
 0.0437072293     1     1    12    10
 0.3780155341     1     1    12    12
 -0.0123389321     1     1    12    16
 -0.2391730930     1     1    13     3
 0.1473413987     1     1    13     7
 0.0792821146     1     1    13     8
 0.4773994392     1     1    13    13
 0.3617748088     1     1    14    14
 -0.0434270306     1     1    15     5
 -0.0394000535     1     1    15    11
 0.3652466199     1     1    15    15
 -0.1761664697     1     1    16     2
 0.1272642367     1     1    16     4
 0.0835964650     1     1    16     6
 0.0696233427     1     1    16     9
 0.0055539537     1     1    16    10
 -0.0123389321     1     1    16    12
 0.5076078754     1     1    16    16
 -0.9851092197     1     2     2     1
 0.0069808688     1     2     2     4
 -0.0013628155     1     2     2     6
 0.0029678815     1     2     2     9
 0.0036472824     1     2     2    10
 0.0015941933     1     2     2    12
 0.0018008196     1     2     2    16
 0.0309407564     1     2     3     3
 -0.0110028920     1     2     3     7
 -0.0088138088     1     2     3     8
 -0.0213409561     1     2     3    13
 0.0682573250     1     2     4     1
 0.0360191874     1     2     4     4
 -0.0063953119     1     2     4     6
 0.0119464151     1     2     4     9
 0.0151584588     1     2     4    10
 0.0065577147     1     2     4    12
 0.0081664169     1     2     4    16
 0.0410570604     1     2     5     5
 0.0244847509     1     2     5    11
 -0.0045577131     1     2     5    15
 0.1306461963     1     2     6     1
 -0.0062266704     1     2     6     4
 0.0013464967     1     2     6     6
 -0.0021987295     1     2     6     9
 -0.0032475684     1     2     6    10
 -0.0014044056     1     2     6    12
 -0.0012572428     1     2     6    16
 -0.0083264986     1     2     7     3
 0.0034508307     1     2     7     7
 0.0027082246     1     2     7     8
 0.0069480737     1     2     7    13
 -0.0060022180     1     2     8     3
 0.0023842410     1     2     8     7
 0.0020001981     1     2     8     8
 0.0044165595     1     2     8    13
 0.0359379348     1     2     9     1
 0.0089802063     1     2     9     4
 -0.0015154234     1     2     9     6
 0.0040090088     1     2     9     9
 0.0047249044     1     2     9    10
 0.0014936780     1     2     9    12
 0.0030843927     1     2     9    16
 -0.1120480697     1     2    10     1
 0.0126365641     1     2    10     4
 -0.0026791236     1     2    10     6
 0.0053671710     1     2    10     9
 0.0064410364     1     2    10    10
 0.0025890737     1     2    10    12
 0.0034660078     1     2    10    16
 0.0183361150     1     2    11     5
 0.0137366926     1     2    11    11
 -0.0020879313     1     2    11    15
 -0.0753834418     1     2    12     1
 0.0050472733     1     2    12     4
 -0.0010469725     1     2    12     6
 0.0015940288     1     2    12     9
 0.0023436861     1     2    12    10
 0.0008626874     1     2    12    12
 0.0010318650     1     2    12    16
 -0.0147200381     1     2    13     3
 0.0063458259     1     2    13     7
 0.0045848619     1     2    13     8
 0.0122980444     1     2    13    13
 -0.0002842487     1     2    14    14
 -0.0028444441     1     2    15     5
 -0.0016253258     1     2    15    11
 0.0001860300     1     2    15    15
 0.1761664697     1     2    16     1
 0.0044131676     1     2    16     4
 -0.0004655376     1     2    16     6
 0.0022349504     1     2    16     9
 0.0020417012     1     2    16    10
 0.0005346044     1     2    16    12
 0.0023840706     1     2    16    16
 -0.0020513561     1     3     2     7
 -0.0023870950     1     3     2     8
 -0.0055467315     1     3     2    13
 -0.8702222870     1     3     3     1
 -0.0309407564     1     3     3     2
 0.0105899862     1     3     3     4
 0.0042081225     1     3     3     6
 0.0028076590     1     3     3     9
 0.0006237213     1     3     3    10
 -0.0042975114     1     3     3    12
 0.0115358236     1     3     3    16
 -0.0010429517     1     3     4     7
 -0.0040966823     1     3     4     8
 -0.0014396731     1     3     4    13
 -0.0033512219     1     3     5    14
 -0.0018503618     1     3     6     7
 0.0004303870     1     3     6     8
 -0.0016595285     1     3     6    13
 0.1529740941     1     3     7     1
 0.0083264986     1     3     7     2
 -0.0027973831     1     3     7     4
 -0.0036993000     1     3     7     6
 -0.0012698708     1     3     7     9
 0.0020044712     1     3     7    10
 0.0012086189     1     3     7    12
 -0.0038600714     1     3     7    16
 0.0809753038     1     3     8     1
 0.0060022180     1     3     8     2
 -0.0018276636     1     3     8     4
 -0.0017974918     1     3     8     6
 0.0010394497     1     3     8     9
 0.0041036852     1     3     8    10
 0.0027385558     1     3     8    12
 -0.0016124268     1     3     8    16
 -0.0009126543     1     3     9     7
 0.0000448739     1     3     9     8
 -0.0028704450     1     3     9    13
 0.0014342039     1     3    10     7
 0.0018421889     1     3    10     8
 0.0032758734     1     3    10    13
 0.0008718257     1     3    11    14
 -0.0006666791     1     3    12     7
 0.0005960874     1     3    12     8
 -0.0004810463     1     3    12    13
 0.2391730930     1     3    13     1
 0.0147200381     1     3    13     2
 -0.0049318473     1     3    13     4
 -0.0052960353     1     3    13     6
 -0.0035897701     1     3    13     9
 0.0044503561     1     3    13    10
 0.0031752794     1     3    13    12
 -0.0089853211     1     3    13    16
 0.0002635357     1     3    14     5
 0.0032104423     1     3    14    11
 -0.0026757291     1     3    14    15
 -0.0022933432     1     3    15    14
 -0.0001345877     1     3    16     7
 0.0005368196     1     3    16     8
 -0.0016734113     1     3    16    13
 0.0682573250     1     4     2     1
 -0.0069808688     1     4     2     2
 0.0003079137     1     4     2     6
 0.0022900770     1     4     2     9
 0.0016021197     1     4     2    10
 0.0011376281     1     4     2    12
 0.0034364206     1     4     2    16
 -0.0105899862     1     4     3     3
 0.0019322277     1     4     3     7
 -0.0021853973     1     4     3     8
 0.0037958164     1     4     3    13
 -0.9530712013     1     4     4     1
 -0.0360191874     1     4     4     2
 0.0082694284     1     4     4     6
 0.0007561187     1     4     4     9
 -0.0102073693     1     4     4    10
 -0.0020844169     1     4     4    12
 0.0114482887     1     4     4    16
 -0.0137738483     1     4     5     5
 -0.0076669380     1     4     5    11
 -0.0022418068     1     4     5    15
 0.0699193617     1     4     6     1
 0.0062266704     1     4     6     2
 -0.0033230972     1     4     6     6
 0.0014215156     1     4     6     9
 0.0036074828     1     4     6    10
 0.0014751963     1     4     6    12
 -0.0022598464     1     4     6    16
 0.0027973831     1     4     7     3
 -0.0021153163     1     4     7     7
 -0.0009659538     1     4     7     8
 -0.0024521142     1     4     7    13
 0.0018276636     1     4     8     3
 -0.0021942552     1     4     8     7
 -0.0012999836     1     4     8     8
 -0.0053295938     1     4     8    13
 -0.1715063401     1     4     9     1
 -0.0089802063     1     4     9     2
 0.0043140961     1     4     9     6
 0.0010032887     1     4     9     9
 -0.0019813495     1     4     9    10
 -0.0032769505     1     4     9    12
 0.0049665414     1     4     9    16
 -0.1670692362     1     4    10     1
 -0.0126365641     1     4    10     2
 0.0052904581     1     4    10     6
 0.0017632875     1     4    10     9
 -0.0069063792     1     4    10    10
 -0.0031269709     1     4    10    12
 0.0061151678     1     4    10    16
 -0.0062178446     1     4    11     5
 -0.0045437601     1     4    11    11
 0.0016177941     1     4    11    15
 -0.0532087787     1     4    12     1
 -0.0050472733     1     4    12     2
 0.0026618587     1     4    12     6
 -0.0025114562     1     4    12     9
 -0.0041860930     1     4    12    10
 -0.0032438217     1     4    12    12
 0.0009987101     1     4    12    16
 0.0049318473     1     4    13     3
 -0.0022540098     1     4    13     7
 -0.0028143872     1     4    13     8
 -0.0041965705     1     4    13    13
 -0.0024147440     1     4    14    14
 0.0011104803     1     4    15     5
 0.0039340674     1     4    15    11
 -0.0018924420     1     4    15    15
 -0.1272642367     1     4    16     1
 -0.0044131676     1     4    16     2
 0.0016917539     1     4    16     6
 0.0012972413     1     4    16     9
 -0.0011366500     1     4    16    10
 -0.0015857252     1     4    16    12
 0.0025126786     1     4    16    16
 0.0047766323     1     5     2    11
 -0.0015139464     1     5     2    15
 -0.0037599982     1     5     3    14
 -0.0010488991     1     5     4    11
 -0.0035292236     1     5     4    15
 -1.0009251690     1     5     5     1
 -0.0410570604     1     5     5     2
 0.0137738483     1     5     5     4
 0.0079649741     1     5     5     6
 0.0075401396     1     5     5     9
 -0.0082150092     1     5     5    10
 -0.0061992931     1     5     5    12
 0.0119042887     1     5     5    16
 0.0021553911     1     5     6    11
 0.0000315979     1     5     6    15
 -0.0004265106     1     5     7    14
 0.0003899983     1     5     8    14
 -0.0014290749     1     5     9    11
 0.0001375944     1     5     9    15
 0.0012012140     1     5    10    11
 0.0003740725     1     5    10    15
 -0.3028175513     1     5    11     1
 -0.0183361150     1     5    11     2
 0.0062178446     1     5    11     4
 0.0071062967     1     5    11     6
 0.0029804014     1     5    11     9
 -0.0041250740     1     5    11    10
 -0.0033919815     1     5    11    12
 0.0128269320     1     5    11    16
 0.0005116890     1     5    12    11
 -0.0004689074     1     5    12    15
 0.0000200772     1     5    13    14
 -0.0002635357     1     5    14     3
 -0.0016628664     1     5    14     7
 -0.0005101700     1     5    14     8
 -0.0023503382     1     5    14    13
 0.0434270306     1     5    15     1
 0.0028444441     1     5    15     2
 -0.0011104803     1     5    15     4
 -0.0015707888     1     5    15     6
 0.0006578595     1     5    15     9
 0.0029590594     1     5    15    10
 0.0008637009     1     5    15    12
 -0.0000942017     1     5    15    16
 0.0058570644     1     5    16    11
 0.0004078414     1     5    16    15
 0.1306461963     1     6     2     1
 0.0013628155     1     6     2     2
 -0.0003079137     1     6     2     4
 -0.0006828151     1     6     2     9
 -0.0005879071     1     6     2    10
 -0.0003681476     1     6     2    12
 -0.0007392765     1     6     2    16
 -0.0042081225     1     6     3     3
 0.0018501090     1     6     3     7
 0.0022498078     1     6     3     8
 0.0036658150     1     6     3    13
 0.0699193617     1     6     4     1
 0.0063953119     1     6     4     2
 -0.0082694284     1     6     4     4
 -0.0029116681     1     6     4     9
 -0.0017051073     1     6     4    10
 -0.0011972561     1     6     4    12
 -0.0039912770     1     6     4    16
 -0.0079649741     1     6     5     5
 -0.0049302004     1     6     5    11
 0.0016036320     1     6     5    15
 -0.3152169717     1     6     6     1
 -0.0013464967     1     6     6     2
 0.0033230972     1     6     6     4
 0.0008463285     1     6     6     9
 0.0008145268     1     6     6    10
 0.0003336732     1     6     6    12
 0.0011168028     1     6     6    16
 0.0036993000     1     6     7     3
 -0.0011742041     1     6     7     7
 -0.0010031556     1     6     7     8
 -0.0026024212     1     6     7    13
 0.0017974918     1     6     8     3
 -0.0003760681     1     6     8     7
 -0.0003511102     1     6     8     8
 -0.0004871387     1     6     8    13
 0.0074413170     1     6     9     1
 0.0015154234     1     6     9     2
 -0.0043140961     1     6     9     4
 -0.0017788976     1     6     9     9
 -0.0016923024     1     6     9    10
 -0.0001294330     1     6     9    12
 -0.0020170664     1     6     9    16
 0.1150662519     1     6    10     1
 0.0026791236     1     6    10     2
 -0.0052904581     1     6    10     4
 -0.0022918943     1     6    10     9
 -0.0010829544     1     6    10    10
 -0.0003730586     1     6    10    12
 -0.0024187504     1     6    10    16
 -0.0071062967     1     6    11     5
 -0.0045719856     1     6    11    11
 0.0005535174     1     6    11    15
 0.0618691180     1     6    12     1
 0.0010469725     1     6    12     2
 -0.0026618587     1     6    12     4
 -0.0003851736     1     6    12     9
 -0.0003784085     1     6    12    10
 0.0001918882     1     6    12    12
 -0.0007315864     1     6    12    16
 0.0052960353     1     6    13     3
 -0.0019625055     1     6    13     7
 -0.0012249506     1     6    13     8
 -0.0038248696     1     6    13    13
 0.0005368729     1     6    14    14
 0.0015707888     1     6    15     5
 0.0003141947     1     6    15    11
 0.0002260419     1     6    15    15
 -0.0835964650     1     6    16     1
 0.0004655376     1     6    16     2
 -0.0016917539     1     6    16     4
 -0.0009457231     1     6    16     9
 -0.0006087211     1     6    16    10
 0.0000133684     1     6    16    12
 -0.0010093601     1     6    16    16
 0.0020513561     1     7     2     3
 0.0003209201     1     7     2     8
 0.0005860912     1     7     2    13
 0.1529740941     1     7     3     1
 0.0110028920     1     7     3     2
 -0.0019322277     1     7     3     4
 -0.0018501090     1     7     3     6
 -0.0003598761     1     7     3     9
 0.0005598025     1     7     3    10
 0.0018769883     1     7     3    12
 -0.0037433731     1     7     3    16
 0.0010429517     1     7     4     3
 0.0012392896     1     7     4     8
 -0.0001977712     1     7     4    13
 0.0012437973     1     7     5    14
 0.0018503618     1     7     6     3
 -0.0006261855     1     7     6     8
 -0.0006365815     1     7     6    13
 -0.2836071039     1     7     7     1
 -0.0034508307     1     7     7     2
 0.0021153163     1     7     7     4
 0.0011742041     1     7     7     6
 0.0008001390     1     7     7     9
 -0.0003409021     1     7     7    10
 -0.0002929093     1     7     7    12
 0.0016586139     1     7     7    16
 -0.0650419128     1     7     8     1
 -0.0023842410     1     7     8     2
 0.0021942552     1     7     8     4
 0.0003760681     1     7     8     6
 0.0001324382     1     7     8     9
 -0.0008250198     1     7     8    10
 -0.0007325108     1     7     8    12
 0.0009048725     1     7     8    16
 0.0009126543     1     7     9     3
 -0.0002586379     1     7     9     8
 0.0003987432     1     7     9    13
 -0.0014342039     1     7    10     3
 -0.0002862021     1     7    10     8
 -0.0001966257     1     7    10    13
 -0.0003125771     1     7    11    14
 0.0006666791     1     7    12     3
 -0.0003863797     1     7    12     8
 -0.0002727834     1     7    12    13
 -0.1473413987     1     7    13     1
 -0.0063458259     1     7    13     2
 0.0022540098     1     7    13     4
 0.0019625055     1     7    13     6
 0.0014047453     1     7    13     9
 -0.0015964323     1     7    13    10
 -0.0011688977     1     7    13    12
 0.0034459206     1     7    13    16
 0.0016628664     1     7    14     5
 -0.0000728225     1     7    14    11
 0.0007734679     1     7    14    15
 0.0008131126     1     7    15    14
 0.0001345877     1     7    16     3
 -0.0002315311     1     7    16     8
 0.0004911488     1     7    16    13
 0.0023870950     1     8     2     3
 -0.0003209201     1     8     2     7
 -0.0001802736     1     8     2    13
 0.0809753038     1     8     3     1
 0.0088138088     1     8     3     2
 0.0021853973     1     8     3     4
 -0.0022498078     1     8     3     6
 0.0009836120     1     8     3     9
 0.0022963967     1     8     3    10
 0.0021490385     1     8     3    12
 -0.0021973283     1     8     3    16
 0.0040966823     1     8     4     3
 -0.0012392896     1     8     4     7
 -0.0025330353     1     8     4    13
 0.0008937989     1     8     5    14
 -0.0004303870     1     8     6     3
 0.0006261855     1     8     6     7
 0.0007385218     1     8     6    13
 -0.0650419128     1     8     7     1
 -0.0027082246     1     8     7     2
 0.0009659538     1     8     7     4
 0.0010031556     1     8     7     6
 0.0003899515     1     8     7     9
 -0.0005410142     1     8     7    10
 -0.0003489646     1     8     7    12
 0.0011376012     1     8     7    16
 -0.3887816924     1     8     8     1
 -0.0020001981     1     8     8     2
 0.0012999836     1     8     8     4
 0.0003511102     1     8     8     6
 -0.0000259434     1     8     8     9
 -0.0007827980     1     8     8    10
 -0.0005907262     1     8     8    12
 0.0005811699     1     8     8    16
 -0.0000448739     1     8     9     3
 0.0002586379     1     8     9     7
 0.0007783956     1     8     9    13
 -0.0018421889     1     8    10     3
 0.0002862021     1     8    10     7
 0.0003903479     1     8    10    13
 -0.0002060888     1     8    11    14
 -0.0005960874     1     8    12     3
 0.0003863797     1     8    12     7
 0.0005162856     1     8    12    13
 -0.0792821146     1     8    13     1
 -0.0045848619     1     8    13     2
 0.0028143872     1     8    13     4
 0.0012249506     1     8    13     6
 0.0014260979     1     8    13     9
 -0.0006528290     1     8    13    10
 -0.0006685417     1     8    13    12
 0.0027833337     1     8    13    16
 0.0005101700     1     8    14     5
 -0.0004671605     1     8    14    11
 0.0006219493     1     8    14    15
 0.0005834985     1     8    15    14
 -0.0005368196     1     8    16     3
 0.0002315311     1     8    16     7
 0.0008098220     1     8    16    13
 0.0359379348     1     9     2     1
 -0.0029678815     1     9     2     2
 -0.0022900770     1     9     2     4
 0.0006828151     1     9     2     6
 -0.0006560391     1     9     2    10
 -0.0001211222     1     9     2    12
 0.0008928259     1     9     2    16
 -0.0028076590     1     9     3     3
 0.0003598761     1     9     3     7
 -0.0009836120     1     9     3     8
 0.0007615302     1     9     3    13
 -0.1715063401     1     9     4     1
 -0.0119464151     1     9     4     2
 -0.0007561187     1     9     4     4
 0.0029116681     1     9     4     6
 -0.0037805338     1     9     4    10
 -0.0007809912     1     9     4    12
 0.0036931831     1     9     4    16
 -0.0075401396     1     9     5     5
 -0.0044315543     1     9     5    11
 -0.0005242091     1     9     5    15
 0.0074413170     1     9     6     1
 0.0021987295     1     9     6     2
 -0.0014215156     1     9     6     4
 -0.0008463285     1     9     6     6
 0.0006007139     1     9     6    10
 0.0002570046     1     9     6    12
 -0.0010716731     1     9     6    16
 0.0012698708     1     9     7     3
 -0.0008001390     1     9     7     7
 -0.0003899515     1     9     7     8
 -0.0010054849     1     9     7    13
 -0.0010394497     1     9     8     3
 -0.0001324382     1     9     8     7
 0.0000259434     1     9     8     8
 -0.0006448873     1     9     8    13
 -0.3820766723     1     9     9     1
 -0.0040090088     1     9     9     2
 -0.0010032887     1     9     9     4
 0.0017788976     1     9     9     6
 -0.0012889994     1     9     9    10
 -0.0013821206     1     9     9    12
 0.0016060012     1     9     9    16
 -0.0348772771     1     9    10     1
 -0.0053671710     1     9    10     2
 -0.0017632875     1     9    10     4
 0.0022918943     1     9    10     6
 -0.0033045203     1     9    10    10
 -0.0014779116     1     9    10    12
 0.0019070468     1     9    10    16
 -0.0029804014     1     9    11     5
 -0.0019899864     1     9    11    11
 0.0006338982     1     9    11    15
 -0.0247149343     1     9    12     1
 -0.0015940288     1     9    12     2
 0.0025114562     1     9    12     4
 0.0003851736     1     9    12     6
 -0.0002831003     1     9    12    10
 -0.0006235082     1     9    12    12
 0.0008269668     1     9    12    16
 0.0035897701     1     9    13     3
 -0.0014047453     1     9    13     7
 -0.0014260979     1     9    13     8
 -0.0026495575     1     9    13    13
 -0.0007983316     1     9    14    14
 -0.0006578595     1     9    15     5
 0.0006841900     1     9    15    11
 -0.0005136038     1     9    15    15
 -0.0696233427     1     9    16     1
 -0.0022349504     1     9    16     2
 -0.0012972413     1     9    16     4
 0.0009457231     1     9    16     6
 -0.0011118468     1     9    16    10
 -0.0008463694     1     9    16    12
 0.0007225877     1     9    16    16
 -0.1120480697     1    10     2     1
 -0.0036472824     1    10     2     2
 -0.0016021197     1    10     2     4
 0.0005879071     1    10     2     6
 0.0006560391     1    10     2     9
 0.0002370189     1    10     2    12
 0.0014315711     1    10     2    16
 -0.0006237213     1    10     3     3
 -0.0005598025     1    10     3     7
 -0.0022963967     1    10     3     8
 -0.0011779315     1    10     3    13
 -0.1670692362     1    10     4     1
 -0.0151584588     1    10     4     2
 0.0102073693     1    10     4     4
 0.0017051073     1    10     4     6
 0.0037805338     1    10     4     9
 0.0010519383     1    10     4    12
 0.0073487501     1    10     4    16
 0.0082150092     1    10     5     5
 0.0052989196     1    10     5    11
 -0.0025825009     1    10     5    15
 0.1150662519     1    10     6     1
 0.0032475684     1    10     6     2
 -0.0036074828     1    10     6     4
 -0.0008145268     1    10     6     6
 -0.0006007139     1    10     6     9
 0.0000063392     1    10     6    12
 -0.0018132971     1    10     6    16
 -0.0020044712     1    10     7     3
 0.0003409021     1    10     7     7
 0.0005410142     1    10     7     8
 0.0014009156     1    10     7    13
 -0.0041036852     1    10     8     3
 0.0008250198     1    10     8     7
 0.0007827980     1    10     8     8
 0.0010424679     1    10     8    13
 -0.0348772771     1    10     9     1
 -0.0047249044     1    10     9     2
 0.0019813495     1    10     9     4
 0.0016923024     1    10     9     6
 0.0012889994     1    10     9     9
 -0.0011925463     1    10     9    12
 0.0030215814     1    10     9    16
 -0.4564706128     1    10    10     1
 -0.0064410364     1    10    10     2
 0.0069063792     1    10    10     4
 0.0010829544     1    10    10     6
 0.0033045203     1    10    10     9
 -0.0001647028     1    10    10    12
 0.0043855183     1    10    10    16
 0.0041250740     1    10    11     5
 0.0027326683     1    10    11    11
 -0.0000488653     1    10    11    15
 -0.0437072293     1    10    12     1
 -0.0023436861     1    10    12     2
 0.0041860930     1    10    12     4
 0.0003784085     1    10    12     6
 0.0002831003     1    10    12     9
 -0.0007235562     1    10    12    12
 0.0013236416     1    10    12    16
 -0.0044503561     1    10    13     3
 0.0015964323     1    10    13     7
 0.0006528290     1    10    13     8
 0.0031473029     1    10    13    13
 -0.0011357412     1    10    14    14
 -0.0029590594     1    10    15     5
 -0.0003666316     1    10    15    11
 -0.0005243848     1    10    15    15
 -0.0055539537     1    10    16     1
 -0.0020417012     1    10    16     2
 0.0011366500     1    10    16     4
 0.0006087211     1    10    16     6
 0.0011118468     1    10    16     9
 -0.0005575643     1    10    16    12
 0.0016408081     1    10    16    16
 -0.0047766323     1    11     2     5
 -0.0004555572     1    11     2    15
 -0.0023406655     1    11     3    14
 0.0010488991     1    11     4     5
 -0.0023166596     1    11     4    15
 -0.3028175513     1    11     5     1
 -0.0244847509     1    11     5     2
 0.0076669380     1    11     5     4
 0.0049302004     1    11     5     6
 0.0044315543     1    11     5     9
 -0.0052989196     1    11     5    10
 -0.0039021683     1    11     5    12
 0.0070268462     1    11     5    16
 -0.0021553911     1    11     6     5
 0.0002379199     1    11     6    15
 -0.0002389206     1    11     7    14
 0.0002612312     1    11     8    14
 0.0014290749     1    11     9     5
 -0.0000504173     1    11     9    15
 -0.0012012140     1    11    10     5
 0.0003212898     1    11    10    15
 -0.5389683616     1    11    11     1
 -0.0137366926     1    11    11     2
 0.0045437601     1    11    11     4
 0.0045719856     1    11    11     6
 0.0019899864     1    11    11     9
 -0.0027326683     1    11    11    10
 -0.0022319945     1    11    11    12
 0.0083145888     1    11    11    16
 -0.0005116890     1    11    12     5
 -0.0002455014     1    11    12    15
 0.0000241879     1    11    13    14
 -0.0032104423     1    11    14     3
 0.0000728225     1    11    14     7
 0.0004671605     1    11    14     8
 0.0006006665     1    11    14    13
 0.0394000535     1    11    15     1
 0.0016253258     1    11    15     2
 -0.0039340674     1    11    15     4
 -0.0003141947     1    11    15     6
 -0.0006841900     1    11    15     9
 0.0003666316     1    11    15    10
 -0.0000372710     1    11    15    12
 -0.0006900232     1    11    15    16
 -0.0058570644     1    11    16     5
 0.0008075916     1    11    16    15
 -0.0753834418     1    12     2     1
 -0.0015941933     1    12     2     2
 -0.0011376281     1    12     2     4
 0.0003681476     1    12     2     6
 0.0001211222     1    12     2     9
 -0.0002370189     1    12     2    10
 0.0005038245     1    12     2    16
 0.0042975114     1    12     3     3
 -0.0018769883     1    12     3     7
 -0.0021490385     1    12     3     8
 -0.0036758358     1    12     3    13
 -0.0532087787     1    12     4     1
 -0.0065577147     1    12     4     2
 0.0020844169     1    12     4     4
 0.0011972561     1    12     4     6
 0.0007809912     1    12     4     9
 -0.0010519383     1    12     4    10
 0.0026334216     1    12     4    16
 0.0061992931     1    12     5     5
 0.0039021683     1    12     5    11
 -0.0013249908     1    12     5    15
 0.0618691180     1    12     6     1
 0.0014044056     1    12     6     2
 -0.0014751963     1    12     6     4
 -0.0003336732     1    12     6     6
 -0.0002570046     1    12     6     9
 -0.0000063392     1    12     6    10
 -0.0007475584     1    12     6    16
 -0.0012086189     1    12     7     3
 0.0002929093     1    12     7     7
 0.0003489646     1    12     7     8
 0.0009000363     1    12     7    13
 -0.0027385558     1    12     8     3
 0.0007325108     1    12     8     7
 0.0005907262     1    12     8     8
 0.0011826290     1    12     8    13
 -0.0247149343     1    12     9     1
 -0.0014936780     1    12     9     2
 0.0032769505     1    12     9     4
 0.0001294330     1    12     9     6
 0.0013821206     1    12     9     9
 0.0011925463     1    12     9    10
 0.0016752006     1    12     9    16
 -0.0437072293     1    12    10     1
 -0.0025890737     1    12    10     2
 0.0031269709     1    12    10     4
 0.0003730586     1    12    10     6
 0.0014779116     1    12    10     9
 0.0001647028     1    12    10    10
 0.0018850024     1    12    10    16
 0.0033919815     1    12    11     5
 0.0022319945     1    12    11    11
 -0.0002108788     1    12    11    15
 -0.3780155341     1    12    12     1
 -0.0008626874     1    12    12     2
 0.0032438217     1    12    12     4
 -0.0001918882     1    12    12     6
 0.0006235082     1    12    12     9