&FCI NORB= 11,NELEC= 10,MS2=0,
 ORBSYM=1,1,1,1,1,1,1,1,1,1,1
 ISYM=1,
&END
 1.0008804344     1     1     2     2
 -0.0556322324     1     1     2     3
 0.0584940550     1     1     2     5
 -0.0911171209     1     1     2     6
 0.1075573275     1     1     2     7
 0.0174513443     1     1     2     8
 0.0726088537     1     1     2     9
 0.0422404888     1     1     2    10
 -0.0556322324     1     1     3     2
 0.8973960975     1     1     3     3
 -0.0756966024     1     1     3     5
 0.0710074636     1     1     3     6
 0.1323232754     1     1     3     7
 -0.0139116393     1     1     3     8
 -0.0099659646     1     1     3     9
 0.2600785230     1     1     3    10
 1.0129588469     1     1     4     4
 0.2254582950     1     1     4    11
 0.0584940550     1     1     5     2
 -0.0756966024     1     1     5     3
 0.7358871609     1     1     5     5
 0.2953127903     1     1     5     6
 0.0505230943     1     1     5     7
 -0.0685044727     1     1     5     8
 0.0462218052     1     1     5     9
 -0.1154323867     1     1     5    10
 -0.0911171209     1     1     6     2
 0.0710074636     1     1     6     3
 0.2953127903     1     1     6     5
 0.5010543069     1     1     6     6
 0.0292672624     1     1     6     7
 -0.1132135593     1     1     6     8
 0.0067332983     1     1     6     9
 -0.0334851256     1     1     6    10
 0.1075573275     1     1     7     2
 0.1323232754     1     1     7     3
 0.0505230943     1     1     7     5
 0.0292672624     1     1     7     6
 0.3115213204     1     1     7     7
 -0.0279642732     1     1     7     8
 0.0445062550     1     1     7     9
 0.1067539503     1     1     7    10
 0.0174513443     1     1     8     2
 -0.0139116393     1     1     8     3
 -0.0685044727     1     1     8     5
 -0.1132135593     1     1     8     6
 -0.0279642732     1     1     8     7
 0.2541869912     1     1     8     8
 -0.0096455229     1     1     8     9
 0.0121259514     1     1     8    10
 0.0726088537     1     1     9     2
 -0.0099659646     1     1     9     3
 0.0462218052     1     1     9     5
 0.0067332983     1     1     9     6
 0.0445062550     1     1     9     7
 -0.0096455229     1     1     9     8
 0.3465745301     1     1     9     9
 0.0235054124     1     1     9    10
 0.0422404888     1     1    10     2
 0.2600785230     1     1    10     3
 -0.1154323867     1     1    10     5
 -0.0334851256     1     1    10     6
 0.1067539503     1     1    10     7
 0.0121259514     1     1    10     8
 0.0235054124     1     1    10     9
 0.4988890287     1     1    10    10
 0.2254582950     1     1    11     4
 0.3848950239     1     1    11    11
 -1.0008804344     1     2     2     1
 -0.0061067147     1     2     2     3
 0.0007845467     1     2     2     5
 -0.0003870284     1     2     2     6
 -0.0024025176     1     2     2     7
 0.0001672724     1     2     2     8
 -0.0005216998     1     2     2     9
 -0.0049271741     1     2     2    10
 0.0556322324     1     2     3     1
 -0.0334760686     1     2     3     3
 0.0045182541     1     2     3     5
 -0.0033297723     1     2     3     6
 -0.0103021309     1     2     3     7
 0.0011182980     1     2     3     8
 -0.0016510974     1     2     3     9
 -0.0222466869     1     2     3    10
 -0.0435556704     1     2     4     4
 -0.0176117210     1     2     4    11
 -0.0584940550     1     2     5     1
 0.0039072420     1     2     5     3
 -0.0249160213     1     2     5     5
 -0.0179832677     1     2     5     6
 -0.0022906520     1     2     5     7
 0.0056661158     1     2     5     8
 -0.0027900258     1     2     5     9
 0.0087271964     1     2     5    10
 0.0911171209     1     2     6     1
 -0.0023993972     1     2     6     3
 -0.0170744492     1     2     6     5
 -0.0137186304     1     2     6     6
 -0.0032937661     1     2     6     7
 0.0043739276     1     2     6     8
 -0.0020780387     1     2     6     9
 0.0027582564     1     2     6    10
 -0.1075573275     1     2     7     1
 -0.0097089023     1     2     7     3
 -0.0018231686     1     2     7     5
 -0.0034382306     1     2     7     6
 -0.0031063316     1     2     7     7
 0.0011150137     1     2     7     8
 -0.0007662382     1     2     7     9
 -0.0053453370     1     2     7    10
 -0.0174513443     1     2     8     1
 0.0007842461     1     2     8     3
 0.0051337392     1     2     8     5
 0.0041868052     1     2     8     6
 0.0010219768     1     2     8     7
 -0.0014706153     1     2     8     8
 0.0007361426     1     2     8     9
 -0.0008856876     1     2     8    10
 -0.0726088537     1     2     9     1
 -0.0015397054     1     2     9     3
 -0.0022224298     1     2     9     5
 -0.0018102775     1     2     9     6
 -0.0007164610     1     2     9     7
 0.0006806197     1     2     9     8
 -0.0004391897     1     2     9     9
 0.0001598013     1     2     9    10
 -0.0422404888     1     2    10     1
 -0.0182106384     1     2    10     3
 0.0076307477     1     2    10     5
 0.0019276497     1     2    10     6
 -0.0044638470     1     2    10     7
 -0.0006637272     1     2    10     8
 0.0003132937     1     2    10     9
 -0.0129194500     1     2    10    10
 -0.0147576821     1     2    11     4
 -0.0062244075     1     2    11    11
 0.0556322324     1     3     2     1
 0.0061067147     1     3     2     2
 0.0006110121     1     3     2     5
 -0.0009303751     1     3     2     6
 -0.0005932286     1     3     2     7
 0.0003340519     1     3     2     8
 -0.0001113920     1     3     2     9
 -0.0040360485     1     3     2    10
 -0.8973960975     1     3     3     1
 0.0334760686     1     3     3     2
 0.0027190102     1     3     3     5
 -0.0037022094     1     3     3     6
 0.0049355832     1     3     3     7
 0.0010146057     1     3     3     8
 0.0003613390     1     3     3     9
 0.0017656693     1     3     3    10
 0.0117560587     1     3     4     4
 0.0052134896     1     3     4    11
 0.0756966024     1     3     5     1
 -0.0039072420     1     3     5     2
 0.0060672095     1     3     5     5
 0.0065122128     1     3     5     6
 0.0005284359     1     3     5     7
 -0.0027047121     1     3     5     8
 -0.0004481998     1     3     5     9
 -0.0017827014     1     3     5    10
 -0.0710074636     1     3     6     1
 0.0023993972     1     3     6     2
 0.0050602429     1     3     6     5
 0.0027122891     1     3     6     6
 0.0005494929     1     3     6     7
 -0.0011791746     1     3     6     8
 0.0006361167     1     3     6     9
 -0.0013900975     1     3     6    10
 -0.1323232754     1     3     7     1
 0.0097089023     1     3     7     2
 0.0017774036     1     3     7     5
 -0.0011291202     1     3     7     6
 0.0040318700     1     3     7     7
 0.0002049184     1     3     7     8
 0.0010275144     1     3     7     9
 0.0026986390     1     3     7    10
 0.0139116393     1     3     8     1
 -0.0007842461     1     3     8     2
 -0.0015768652     1     3     8     5
 -0.0006256094     1     3     8     6
 -0.0001911190     1     3     8     7
 -0.0004111653     1     3     8     8
 0.0003973695     1     3     8     9
 -0.0002311865     1     3     8    10
 0.0099659646     1     3     9     1
 0.0015397054     1     3     9     2
 0.0002535784     1     3     9     5
 0.0009302923     1     3     9     6
 0.0012658568     1     3     9     7
 0.0002212076     1     3     9     8
 0.0002782400     1     3     9     9
 0.0040451088     1     3     9    10
 -0.2600785230     1     3    10     1
 0.0182106384     1     3    10     2
 0.0003833202     1     3    10     5
 -0.0043127897     1     3    10     6
 0.0054367096     1     3    10     7
 0.0007695225     1     3    10     8
 0.0043628699     1     3    10     9
 0.0051885748     1     3    10    10
 0.0038059929     1     3    11     4
 0.0005796679     1     3    11    11
 -0.0028540389     1     4     2    11
 0.0014074967     1     4     3    11
 -1.0129588469     1     4     4     1
 0.0435556704     1     4     4     2
 -0.0117560587     1     4     4     3
 0.0051825807     1     4     4     5
 -0.0069082035     1     4     4     6
 0.0052446243     1     4     4     7
 0.0021626436     1     4     4     8
 0.0070260385     1     4     4     9
 0.0004577543     1     4     4    10
 0.0014169968     1     4     5    11
 -0.0001836724     1     4     6    11
 0.0009297830     1     4     7    11
 -0.0007336569     1     4     8    11
 -0.0005355842     1     4     9    11
 -0.0005340167     1     4    10    11
 -0.2254582950     1     4    11     1
 0.0147576821     1     4    11     2
 -0.0038059929     1     4    11     3
 0.0025597781     1     4    11     5
 -0.0038335943     1     4    11     6
 0.0027988507     1     4    11     7
 0.0004114447     1     4    11     8
 0.0022039298     1     4    11     9
 -0.0003685114     1     4    11    10
 -0.0584940550     1     5     2     1
 -0.0007845467     1     5     2     2
 -0.0006110121     1     5     2     3
 -0.0009088185     1     5     2     6
 -0.0004674834     1     5     2     7
 0.0005323766     1     5     2     8
 -0.0005675960     1     5     2     9
 0.0010964487     1     5     2    10
 0.0756966024     1     5     3     1
 -0.0045182541     1     5     3     2
 -0.0027190102     1     5     3     3
 0.0014519699     1     5     3     6
 -0.0012489677     1     5     3     7
 -0.0011278469     1     5     3     8
 -0.0007017782     1     5     3     9
 -0.0021660216     1     5     3    10
 -0.0051825807     1     5     4     4
 -0.0011427813     1     5     4    11
 -0.7358871609     1     5     5     1
 0.0249160213     1     5     5     2
 -0.0060672095     1     5     5     3
 -0.0031099313     1     5     5     6
 0.0033150479     1     5     5     7
 -0.0001662406     1     5     5     8
 0.0042552403     1     5     5     9
 0.0015681775     1     5     5    10
 -0.2953127903     1     5     6     1
 0.0170744492     1     5     6     2
 -0.0050602429     1     5     6     3
 -0.0062160509     1     5     6     6
 0.0013622183     1     5     6     7
 0.0015325275     1     5     6     8
 0.0023873966     1     5     6     9
 0.0008854267     1     5     6    10
 -0.0505230943     1     5     7     1
 0.0018231686     1     5     7     2
 -0.0017774036     1     5     7     3
 -0.0009134416     1     5     7     6
 -0.0002891404     1     5     7     7
 0.0003290683     1     5     7     8
 0.0004039573     1     5     7     9
 -0.0012579288     1     5     7    10
 0.0685044727     1     5     8     1
 -0.0051337392     1     5     8     2
 0.0015768652     1     5     8     3
 0.0025370749     1     5     8     6
 -0.0000227292     1     5     8     7
 -0.0021833682     1     5     8     8
 -0.0009240001     1     5     8     9
 0.0002368946     1     5     8    10
 -0.0462218052     1     5     9     1
 0.0022224298     1     5     9     2
 -0.0002535784     1     5     9     3
 -0.0009170224     1     5     9     6
 0.0005482621     1     5     9     7
 -0.0000333462     1     5     9     8
 -0.0008105463     1     5     9     9
 0.0007961310     1     5     9    10
 0.1154323867     1     5    10     1
 -0.0076307477     1     5    10     2
 -0.0003833202     1     5    10     3
 0.0017343711     1     5    10     6
 -0.0024718222     1     5    10     7
 -0.0001290051     1     5    10     8
 -0.0011818008     1     5    10     9
 -0.0015210587     1     5    10    10
 -0.0025597781     1     5    11     4
 -0.0031318718     1     5    11    11
 0.0911171209     1     6     2     1
 0.0003870284     1     6     2     2
 0.0009303751     1     6     2     3
 0.0009088185     1     6     2     5
 0.0001444645     1     6     2     7
 0.0001871224     1     6     2     8
 -0.0002677612     1     6     2     9
 0.0008306067     1     6     2    10
 -0.0710074636     1     6     3     1
 0.0033297723     1     6     3     2
 0.0037022094     1     6     3     3
 -0.0014519699     1     6     3     5
 0.0016786131     1     6     3     7
 -0.0005535652     1     6     3     8
 -0.0002941756     1     6     3     9
 0.0029226922     1     6     3    10
 0.0069082035     1     6     4     4
 0.0036499219     1     6     4    11
 -0.2953127903     1     6     5     1
 0.0179832677     1     6     5     2
 -0.0065122128     1     6     5     3
 0.0031099313     1     6     5     5
 0.0022756599     1     6     5     7
 -0.0010045474     1     6     5     8
 0.0033044190     1     6     5     9
 -0.0008489444     1     6     5    10
 -0.5010543069     1     6     6     1
 0.0137186304     1     6     6     2
 -0.0027122891     1     6     6     3
 0.0062160509     1     6     6     5
 0.0023136754     1     6     6     7
 -0.0003977244     1     6     6     8
 0.0026205335     1     6     6     9
 -0.0001732037     1     6     6    10
 -0.0292672624     1     6     7     1
 0.0034382306     1     6     7     2
 0.0011291202     1     6     7     3
 0.0009134416     1     6     7     5
 0.0014262704     1     6     7     7
 -0.0000036913     1     6     7     8
 0.0007181468     1     6     7     9
 0.0009521475     1     6     7    10
 0.1132135593     1     6     8     1
 -0.0041868052     1     6     8     2
 0.0006256094     1     6     8     3
 -0.0025370749     1     6     8     5
 -0.0005794866     1     6     8     7
 -0.0011338857     1     6     8     8
 -0.0009291168     1     6     8     9
 0.0003392430     1     6     8    10
 -0.0067332983     1     6     9     1
 0.0018102775     1     6     9     2
 -0.0009302923     1     6     9     3
 0.0009170224     1     6     9     5
 0.0005058598     1     6     9     7
 -0.0001571224     1     6     9     8
 -0.0005207565     1     6     9     9
 0.0006204059     1     6     9    10
 0.0334851256     1     6    10     1
 -0.0019276497     1     6    10     2
 0.0043127897     1     6    10     3
 -0.0017343711     1     6    10     5
 0.0004123542     1     6    10     7
 0.0002045883     1     6    10     8
 -0.0000511003     1     6    10     9
 0.0031512678     1     6    10    10
 0.0038335943     1     6    11     4
 -0.0002004725     1     6    11    11
 -0.1075573275     1     7     2     1
 0.0024025176     1     7     2     2
 0.0005932286     1     7     2     3
 0.0004674834     1     7     2     5
 -0.0001444645     1     7     2     6
 0.0000930369     1     7     2     8
 -0.0000497772     1     7     2     9
 -0.0008814900     1     7     2    10
 -0.1323232754     1     7     3     1
 0.0103021309     1     7     3     2
 -0.0049355832     1     7     3     3
 0.0012489677     1     7     3     5
 -0.0016786131     1     7     3     6
 0.0003960374     1     7     3     8
 -0.0002383424     1     7     3     9
 -0.0027380706     1     7     3    10
 -0.0052446243     1     7     4     4
 -0.0018690677     1     7     4    11
 -0.0505230943     1     7     5     1
 0.0022906520     1     7     5     2
 -0.0005284359     1     7     5     3
 -0.0033150479     1     7     5     5
 -0.0022756599     1     7     5     6
 0.0003517975     1     7     5     8
 -0.0001443048     1     7     5     9
 0.0012138934     1     7     5    10
 -0.0292672624     1     7     6     1
 0.0032937661     1     7     6     2
 -0.0005494929     1     7     6     3
 -0.0013622183     1     7     6     5
 -0.0023136754     1     7     6     6
 0.0005757953     1     7     6     8
 0.0002122870     1     7     6     9
 0.0005397933     1     7     6    10
 -0.3115213204     1     7     7     1
 0.0031063316     1     7     7     2
 -0.0040318700     1     7     7     3
 0.0002891404     1     7     7     5
 -0.0014262704     1     7     7     6
 0.0004165660     1     7     7     8
 0.0001366071     1     7     7     9
 -0.0015460675     1     7     7    10
 0.0279642732     1     7     8     1
 -0.0010219768     1     7     8     2
 0.0001911190     1     7     8     3
 0.0000227292     1     7     8     5
 0.0005794866     1     7     8     6
 -0.0005904743     1     7     8     8
 0.0000727101     1     7     8     9
 -0.0002131621     1     7     8    10
 -0.0445062550     1     7     9     1
 0.0007164610     1     7     9     2
 -0.0012658568     1     7     9     3
 -0.0005482621     1     7     9     5
 -0.0005058598     1     7     9     6
 0.0002970138     1     7     9     8
 -0.0001673460     1     7     9     9
 0.0008959793     1     7     9    10
 -0.1067539503     1     7    10     1
 0.0044638470     1     7    10     2
 -0.0054367096     1     7    10     3
 0.0024718222     1     7    10     5
 -0.0004123542     1     7    10     6
 -0.0000075519     1     7    10     8
 0.0012634831     1     7    10     9
 -0.0024438578     1     7    10    10
 -0.0027988507     1     7    11     4
 -0.0017672808     1     7    11    11
 -0.0174513443     1     8     2     1
 -0.0001672724     1     8     2     2
 -0.0003340519     1     8     2     3
 -0.0005323766     1     8     2     5
 -0.0001871224     1     8     2     6
 -0.0000930369     1     8     2     7
 0.0000555229     1     8     2     9
 -0.0002219604     1     8     2    10
 0.0139116393     1     8     3     1
 -0.0011182980     1     8     3     2
 -0.0010146057     1     8     3     3
 0.0011278469     1     8     3     5
 0.0005535652     1     8     3     6
 -0.0003960374     1     8     3     7
 0.0001761619     1     8     3     9
 -0.0010007090     1     8     3    10
 -0.0021626436     1     8     4     4
 -0.0011451016     1     8     4    11
 0.0685044727     1     8     5     1
 -0.0056661158     1     8     5     2
 0.0027047121     1     8     5     3
 0.0001662406     1     8     5     5
 0.0010045474     1     8     5     6
 -0.0003517975     1     8     5     7
 -0.0008906539     1     8     5     9
 0.0003658997     1     8     5    10
 0.1132135593     1     8     6     1
 -0.0043739276     1     8     6     2
 0.0011791746     1     8     6     3
 -0.0015325275     1     8     6     5
 0.0003977244     1     8     6     6
 -0.0005757953     1     8     6     7
 -0.0007719944     1     8     6     9
 0.0001346547     1     8     6    10
 0.0279642732     1     8     7     1
 -0.0011150137     1     8     7     2
 -0.0002049184     1     8     7     3
 -0.0003290683     1     8     7     5
 0.0000036913     1     8     7     6
 -0.0004165660     1     8     7     7
 -0.0002243037     1     8     7     9
 -0.0002056102     1     8     7    10
 -0.2541869912     1     8     8     1
 0.0014706153     1     8     8     2
 0.0004111653     1     8     8     3
 0.0021833682     1     8     8     5
 0.0011338857     1     8     8     6
 0.0005904743     1     8     8     7
 0.0004874359     1     8     8     9
 -0.0000593130     1     8     8    10
 0.0096455229     1     8     9     1
 -0.0006806197     1     8     9     2
 -0.0002212076     1     8     9     3
 0.0000333462     1     8     9     5
 0.0001571224     1     8     9     6
 -0.0002970138     1     8     9     7
 0.0001593158     1     8     9     9
 -0.0006106476     1     8     9    10
 -0.0121259514     1     8    10     1
 0.0006637272     1     8    10     2
 -0.0007695225     1     8    10     3
 0.0001290051     1     8    10     5
 -0.0002045883     1     8    10     6
 0.0000075519     1     8    10     7
 0.0000036961     1     8    10     9
 -0.0005265204     1     8    10    10
 -0.0004114447     1     8    11     4
 0.0003756861     1     8    11    11
 -0.0726088537     1     9     2     1
 0.0005216998     1     9     2     2
 0.0001113920     1     9     2     3
 0.0005675960     1     9     2     5
 0.0002677612     1     9     2     6
 0.0000497772     1     9     2     7
 -0.0000555229     1     9     2     8
 -0.0001534924     1     9     2    10
 0.0099659646     1     9     3     1
 0.0016510974     1     9     3     2
 -0.0003613390     1     9     3     3
 0.0007017782     1     9     3     5
 0.0002941756     1     9     3     6
 0.0002383424     1     9     3     7
 -0.0001761619     1     9     3     8
 -0.0003177611     1     9     3    10
 -0.0070260385     1     9     4     4
 -0.0027395140     1     9     4    11
 -0.0462218052     1     9     5     1
 0.0027900258     1     9     5     2
 0.0004481998     1     9     5     3
 -0.0042552403     1     9     5     5
 -0.0033044190     1     9     5     6
 0.0001443048     1     9     5     7
 0.0008906539     1     9     5     8
 0.0019779318     1     9     5    10
 -0.0067332983     1     9     6     1
 0.0020780387     1     9     6     2
 -0.0006361167     1     9     6     3
 -0.0023873966     1     9     6     5
 -0.0026205335     1     9     6     6
 -0.0002122870     1     9     6     7
 0.0007719944     1     9     6     8
 0.0006715062     1     9     6    10
 -0.0445062550     1     9     7     1
 0.0007662382     1     9     7     2
 -0.0010275144     1     9     7     3
 -0.0004039573     1     9     7     5
 -0.0007181468     1     9     7     6
 -0.0001366071     1     9     7     7
 0.0002243037     1     9     7     8
 -0.0003675038     1     9     7    10
 0.0096455229     1     9     8     1
 -0.0007361426     1     9     8     2
 -0.0003973695     1     9     8     3
 0.0009240001     1     9     8     5
 0.0009291168     1     9     8     6
 -0.0000727101     1     9     8     7
 -0.0004874359     1     9     8     8
 -0.0006143437     1     9     8    10
 -0.3465745301     1     9     9     1
 0.0004391897     1     9     9     2
 -0.0002782400     1     9     9     3
 0.0008105463     1     9     9     5
 0.0005207565     1     9     9     6
 0.0001673460     1     9     9     7
 -0.0001593158     1     9     9     8
 0.0000115617     1     9     9    10
 -0.0235054124     1     9    10     1
 -0.0003132937     1     9    10     2
 -0.0043628699     1     9    10     3
 0.0011818008     1     9    10     5
 0.0000511003     1     9    10     6
 -0.0012634831     1     9    10     7
 -0.0000036961     1     9    10     8
 -0.0028851087     1     9    10    10
 -0.0022039298     1     9    11     4
 -0.0011921119     1     9    11    11
 -0.0422404888     1    10     2     1
 0.0049271741     1    10     2     2
 0.0040360485     1    10     2     3
 -0.0010964487     1    10     2     5
 -0.0008306067     1    10     2     6
 0.0008814900     1    10     2     7
 0.0002219604     1    10     2     8
 0.0001534924     1    10     2     9
 -0.2600785230     1    10     3     1
 0.0222466869     1    10     3     2
 -0.0017656693     1    10     3     3
 0.0021660216     1    10     3     5
 -0.0029226922     1    10     3     6
 0.0027380706     1    10     3     7
 0.0010007090     1    10     3     8
 0.0003177611     1    10     3     9
 -0.0004577543     1    10     4     4
 -0.0001655053     1    10     4    11
 0.1154323867     1    10     5     1
 -0.0087271964     1    10     5     2
 0.0017827014     1    10     5     3
 -0.0015681775     1    10     5     5
 0.0008489444     1    10     5     6
 -0.0012138934     1    10     5     7
 -0.0003658997     1    10     5     8
 -0.0019779318     1    10     5     9
 0.0334851256     1    10     6     1
 -0.0027582564     1    10     6     2
 0.0013900975     1    10     6     3
 -0.0008854267     1    10     6     5
 0.0001732037     1    10     6     6
 -0.0005397933     1    10     6     7
 -0.0001346547     1    10     6     8
 -0.0006715062     1    10     6     9
 -0.1067539503     1    10     7     1
 0.0053453370     1    10     7     2
 -0.0026986390     1    10     7     3
 0.0012579288     1    10     7     5
 -0.0009521475     1    10     7     6
 0.0015460675     1    10     7     7
 0.0002056102     1    10     7     8
 0.0003675038     1    10     7     9
 -0.0121259514     1    10     8     1
 0.0008856876     1    10     8     2
 0.0002311865     1    10     8     3
 -0.0002368946     1    10     8     5
 -0.0003392430     1    10     8     6
 0.0002131621     1    10     8     7
 0.0000593130     1    10     8     8
 0.0006143437     1    10     8     9
 -0.0235054124     1    10     9     1
 -0.0001598013     1    10     9     2
 -0.0040451088     1    10     9     3
 -0.0007961310     1    10     9     5
 -0.0006204059     1    10     9     6
 -0.0008959793     1    10     9     7
 0.0006106476     1    10     9     8
 -0.0000115617     1    10     9     9
 -0.4988890287     1    10    10     1
 0.0129194500     1    10    10     2
 -0.0051885748     1    10    10     3
 0.0015210587     1    10    10     5
 -0.0031512678     1    10    10     6
 0.0024438578     1    10    10     7
 0.0005265204     1    10    10     8
 0.0028851087     1    10    10     9
 0.0003685114     1    10    11     4
 0.0000539459     1    10    11    11
 0.0028540389     1    11     2     4
 -0.0014074967     1    11     3     4
 -0.2254582950     1    11     4     1
 0.0176117210     1    11     4     2
 -0.0052134896     1    11     4     3
 0.0011427813     1    11     4     5
 -0.0036499219     1    11     4     6
 0.0018690677     1    11     4     7
 0.0011451016     1    11     4     8
 0.0027395140     1    11     4     9
 0.0001655053     1    11     4    10
 -0.0014169968     1    11     5     4
 0.0001836724     1    11     6     4
 -0.0009297830     1    11     7     4
 0.0007336569     1    11     8     4
 0.0005355842     1    11     9     4
 0.0005340167     1    11    10     4
 -0.3848950239     1    11    11     1
 0.0062244075     1    11    11     2
 -0.0005796679     1    11    11     3
 0.0031318718     1    11    11     5
 0.0002004725     1    11    11     6
 0.0017672808     1    11    11     7
 -0.0003756861     1    11    11     8
 0.0011921119     1    11    11     9
 -0.0000539459     1    11    11    10
 -1.0008804344     2     1     1     2
 0.0556322324     2     1     1     3
 -0.0584940550     2     1     1     5
 0.0911171209     2     1     1     6
 -0.1075573275     2     1     1     7
 -0.0174513443     2     1     1     8
 -0.0726088537     2     1     1     9
 -0.0422404888     2     1     1    10
 -0.0061067147     2     1     3     2
 -0.0334760686     2     1     3     3
 0.0039072420     2     1     3     5
 -0.0023993972     2     1     3     6
 -0.0097089023     2     1     3     7
 0.0007842461     2     1     3     8
 -0.0015397054     2     1     3     9
 -0.0182106384     2     1     3    10
 -0.0435556704     2     1     4     4
 -0.0147576821     2     1     4    11
 0.0007845467     2     1     5     2
 0.0045182541     2     1     5     3
 -0.0249160213     2     1     5     5
 -0.0170744492     2     1     5     6
 -0.0018231686     2     1     5     7
 0.0051337392     2     1     5     8
 -0.0022224298     2     1     5     9
 0.0076307477     2     1     5    10
 -0.0003870284     2     1     6     2
 -0.0033297723     2     1     6     3
 -0.0179832677     2     1     6     5
 -0.0137186304     2     1     6     6
 -0.0034382306     2     1     6     7
 0.0041868052     2     1     6     8
 -0.0018102775     2     1     6     9
 0.0019276497     2     1     6    10
 -0.0024025176     2     1     7     2
 -0.0103021309     2     1     7     3
 -0.0022906520     2     1     7     5
 -0.0032937661     2     1     7     6
 -0.0031063316     2     1     7     7
 0.0010219768     2     1     7     8
 -0.0007164610     2     1     7     9
 -0.0044638470     2     1     7    10
 0.0001672724     2     1     8     2
 0.0011182980     2     1     8     3
 0.0056661158     2     1     8     5
 0.0043739276     2     1     8     6
 0.0011150137     2     1     8     7
 -0.0014706153     2     1     8     8
 0.0006806197     2     1     8     9
 -0.0006637272     2     1     8    10
 -0.0005216998     2     1     9     2
 -0.0016510974     2     1     9     3
 -0.0027900258     2     1     9     5
 -0.0020780387     2     1     9     6
 -0.0007662382     2     1     9     7
 0.0007361426     2     1     9     8
 -0.0004391897     2     1     9     9
 0.0003132937     2     1     9    10
 -0.0049271741     2     1    10     2
 -0.0222466869     2     1    10     3
 0.0087271964     2     1    10     5
 0.0027582564     2     1    10     6
 -0.0053453370     2     1    10     7
 -0.0008856876     2     1    10     8
 0.0001598013     2     1    10     9
 -0.0129194500     2     1    10    10
 -0.0176117210     2     1    11     4
 -0.0062244075     2     1    11    11
 1.0008804344     2     2     1     1
 0.0061067147     2     2     1     3
 -0.0007845467     2     2     1     5
 0.0003870284     2     2     1     6
 0.0024025176     2     2     1     7
 -0.0001672724     2     2     1     8
 0.0005216998     2     2     1     9
 0.0049271741     2     2     1    10
 0.0061067147     2     2     3     1
 0.5352511279     2     2     3     3
 -0.0290583505     2     2     3     5
 0.0294456367     2     2     3     6
 0.0508603684     2     2     3     7
 -0.0023954673     2     2     3     8
 -0.0154271130     2     2     3     9
 0.0862434186     2     2     3    10
 0.5863910025     2     2     4     4
 0.0861284533     2     2     4    11
 -0.0007845467     2     2     5     1
 -0.0290583505     2     2     5     3
 0.4706817535     2     2     5     5
 0.1327810548     2     2     5     6
 0.0218737989     2     2     5     7
 -0.0219000069     2     2     5     8
 0.0150599750     2     2     5     9
 -0.0443215383     2     2     5    10
 0.0003870284     2     2     6     1
 0.0294456367     2     2     6     3
 0.1327810548     2     2     6     5
 0.3529752396     2     2     6     6
 0.0091354473     2     2     6     7
 -0.0690544809     2     2     6     8
 0.0013619458     2     2     6     9
 -0.0125851954     2     2     6    10
 0.0024025176     2     2     7     1
 0.0508603684     2     2     7     3
 0.0218737989     2     2     7     5
 0.0091354473     2     2     7     6
 0.2767363574     2     2     7     7
 -0.0199023153     2     2     7     8
 0.0260369183     2     2     7     9
 0.0656824153     2     2     7    10
 -0.0001672724     2     2     8     1
 -0.0023954673     2     2     8     3
 -0.0219000069     2     2     8     5