&FCI NORB= 15,NELEC= 10,MS2=0,
 ORBSYM=1,1,1,1,1,1,1,1,1,1,1,1,1,1,1
 ISYM=1,
&END
 0.9834846188     1     1     2     2
 0.0685847222     1     1     2     4
 -0.1485746771     1     1     2     6
 -0.1186594157     1     1     2     9
 0.0399132867     1     1     2    10
 -0.0694849278     1     1     2    12
 0.8665560766     1     1     3     3
 0.1793561224     1     1     3     7
 0.1078061893     1     1     3     8
 0.2531253930     1     1     3    13
 0.0685847222     1     1     4     2
 0.9524402505     1     1     4     4
 0.0809788599     1     1     4     6
 0.0640504790     1     1     4     9
 -0.2689244262     1     1     4    10
 0.0408707223     1     1     4    12
 1.0028914240     1     1     5     5
 -0.3472056066     1     1     5    11
 0.0246279570     1     1     5    15
 -0.1485746771     1     1     6     2
 0.0809788599     1     1     6     4
 0.3479682796     1     1     6     6
 0.1073036871     1     1     6     9
 -0.0899219199     1     1     6    10
 0.0571832224     1     1     6    12
 0.1793561224     1     1     7     3
 0.3255042924     1     1     7     7
 0.0989699960     1     1     7     8
 0.1676520113     1     1     7    13
 0.1078061893     1     1     8     3
 0.0989699960     1     1     8     7
 0.4548827232     1     1     8     8
 0.0846252418     1     1     8    13
 -0.1186594157     1     1     9     2
 0.0640504790     1     1     9     4
 0.1073036871     1     1     9     6
 0.4548353564     1     1     9     9
 -0.0559057982     1     1     9    10
 0.0197103121     1     1     9    12
 0.0399132867     1     1    10     2
 -0.2689244262     1     1    10     4
 -0.0899219199     1     1    10     6
 -0.0559057982     1     1    10     9
 0.5360007444     1     1    10    10
 -0.0456911528     1     1    10    12
 -0.3472056066     1     1    11     5
 0.6618686870     1     1    11    11
 -0.0300123883     1     1    11    15
 -0.0694849278     1     1    12     2
 0.0408707223     1     1    12     4
 0.0571832224     1     1    12     6
 0.0197103121     1     1    12     9
 -0.0456911528     1     1    12    10
 0.4317556778     1     1    12    12
 0.2531253930     1     1    13     3
 0.1676520113     1     1    13     7
 0.0846252418     1     1    13     8
 0.5460713092     1     1    13    13
 0.4176857739     1     1    14    14
 0.0246279570     1     1    15     5
 -0.0300123883     1     1    15    11
 0.4168038069     1     1    15    15
 -0.9834846188     1     2     2     1
 -0.0069429439     1     2     2     4
 -0.0016599877     1     2     2     6
 -0.0019941332     1     2     2     9
 0.0056871331     1     2     2    10
 -0.0015091594     1     2     2    12
 0.0307123241     1     2     3     3
 0.0132329506     1     2     3     7
 0.0117621456     1     2     3     8
 0.0240610667     1     2     3    13
 -0.0685847222     1     2     4     1
 0.0359701741     1     2     4     4
 0.0073861465     1     2     4     6
 0.0080062148     1     2     4     9
 -0.0226579201     1     2     4    10
 0.0060178659     1     2     4    12
 0.0411487488     1     2     5     5
 -0.0293341084     1     2     5    11
 0.0033423017     1     2     5    15
 0.1485746771     1     2     6     1
 0.0073179421     1     2     6     4
 0.0017465015     1     2     6     6
 0.0021306736     1     2     6     9
 -0.0051887360     1     2     6    10
 0.0014477916     1     2     6    12
 0.0099020327     1     2     7     3
 0.0048782352     1     2     7     7
 0.0043084211     1     2     7     8
 0.0091553842     1     2     7    13
 0.0079538687     1     2     8     3
 0.0038247422     1     2     8     7
 0.0033888531     1     2     8     8
 0.0065649796     1     2     8    13
 0.1186594157     1     2     9     1
 0.0070667260     1     2     9     4
 0.0018597879     1     2     9     6
 0.0016785953     1     2     9     9
 -0.0052675424     1     2     9    10
 0.0014007446     1     2     9    12
 -0.0399132867     1     2    10     1
 -0.0171616945     1     2    10     4
 -0.0036928377     1     2    10     6
 -0.0043385548     1     2    10     9
 0.0133722022     1     2    10    10
 -0.0026746046     1     2    10    12
 -0.0218349916     1     2    11     5
 0.0190008777     1     2    11    11
 -0.0015860656     1     2    11    15
 0.0694849278     1     2    12     1
 0.0043830054     1     2    12     4
 0.0009875579     1     2    12     6
 0.0010978408     1     2    12     9
 -0.0025139038     1     2    12    10
 0.0006427936     1     2    12    12
 0.0157986752     1     2    13     3
 0.0080831223     1     2    13     7
 0.0065457567     1     2    13     8
 0.0149733758     1     2    13    13
 -0.0003272107     1     2    14    14
 0.0016776502     1     2    15     5
 -0.0008169990     1     2    15    11
 0.0000376899     1     2    15    15
 0.0025969361     1     3     2     7
 0.0032382703     1     3     2     8
 0.0070470143     1     3     2    13
 -0.8665560766     1     3     3     1
 -0.0307123241     1     3     3     2
 -0.0104636616     1     3     3     4
 0.0044879044     1     3     3     6
 0.0001958869     1     3     3     9
 0.0025241465     1     3     3    10
 0.0049534408     1     3     3    12
 -0.0013029524     1     3     4     7
 -0.0049847605     1     3     4     8
 -0.0002889655     1     3     4    13
 0.0043257292     1     3     5    14
 0.0021098200     1     3     6     7
 -0.0004170977     1     3     6     8
 0.0019237713     1     3     6    13
 -0.1793561224     1     3     7     1
 -0.0099020327     1     3     7     2
 -0.0034826052     1     3     7     4
 0.0045488411     1     3     7     6
 0.0025733826     1     3     7     9
 -0.0001792699     1     3     7    10
 0.0016756769     1     3     7    12
 -0.1078061893     1     3     8     1
 -0.0079538687     1     3     8     2
 -0.0025088174     1     3     8     4
 0.0027769062     1     3     8     6
 0.0046622671     1     3     8     9
 -0.0038909492     1     3     8    10
 0.0035003797     1     3     8    12
 0.0019893127     1     3     9     7
 0.0029061688     1     3     9     8
 0.0049814584     1     3     9    13
 0.0001973866     1     3    10     7
 -0.0005275458     1     3    10     8
 0.0012481193     1     3    10    13
 0.0007807248     1     3    11    14
 -0.0008363310     1     3    12     7
 0.0006294093     1     3    12     8
 -0.0013195398     1     3    12    13
 -0.2531253930     1     3    13     1
 -0.0157986752     1     3    13     2
 -0.0054913240     1     3    13     4
 0.0061631972     1     3    13     6
 0.0058106499     1     3    13     9
 0.0013711368     1     3    13    10
 0.0031070932     1     3    13    12
 -0.0006090745     1     3    14     5
 0.0045452331     1     3    14    11
 -0.0036637515     1     3    14    15
 -0.0033352842     1     3    15    14
 -0.0685847222     1     4     2     1
 0.0069429439     1     4     2     2
 -0.0004518459     1     4     2     6
 0.0004452070     1     4     2     9
 -0.0042050103     1     4     2    10
 0.0013274254     1     4     2    12
 0.0104636616     1     4     3     3
 0.0023704902     1     4     3     7
 -0.0023755327     1     4     3     8
 0.0055984577     1     4     3    13
 -0.9524402505     1     4     4     1
 -0.0359701741     1     4     4     2
 0.0092374814     1     4     4     6
 0.0096848328     1     4     4     9
 -0.0066845797     1     4     4    10
 0.0003582496     1     4     4    12
 0.0137249446     1     4     5     5
 -0.0093403841     1     4     5    11
 -0.0036966416     1     4     5    15
 -0.0809788599     1     4     6     1
 -0.0073179421     1     4     6     2
 0.0041293249     1     4     6     6
 0.0029088528     1     4     6     9
 -0.0037941197     1     4     6    10
 0.0011397663     1     4     6    12
 0.0034826052     1     4     7     3
 0.0027529398     1     4     7     7
 0.0011669404     1     4     7     8
 0.0035456450     1     4     7    13
 0.0025088174     1     4     8     3
 0.0029060779     1     4     8     7
 0.0028464082     1     4     8     8
 0.0071969001     1     4     8    13
 -0.0640504790     1     4     9     1
 -0.0070667260     1     4     9     2
 0.0029974232     1     4     9     6
 0.0060232238     1     4     9     9
 -0.0020082201     1     4     9    10
 0.0007447353     1     4     9    12
 0.2689244262     1     4    10     1
 0.0171616945     1     4    10     2
 -0.0082935833     1     4    10     6
 -0.0066810315     1     4    10     9
 0.0028858281     1     4    10    10
 -0.0047493681     1     4    10    12
 -0.0077043667     1     4    11     5
 0.0065023999     1     4    11    11
 -0.0012282727     1     4    11    15
 -0.0408707223     1     4    12     1
 -0.0043830054     1     4    12     2
 0.0026903817     1     4    12     6
 0.0023253236     1     4    12     9
 -0.0058146777     1     4    12    10
 0.0034667116     1     4    12    12
 0.0054913240     1     4    13     3
 0.0026223827     1     4    13     7
 0.0032506662     1     4    13     8
 0.0039429607     1     4    13    13
 0.0034833825     1     4    14    14
 0.0010467099     1     4    15     5
 -0.0049337268     1     4    15    11
 0.0022630682     1     4    15    15
 -0.0059271966     1     5     2    11
 0.0015335931     1     5     2    15
 0.0049699251     1     5     3    14
 -0.0011394237     1     5     4    11
 -0.0047478631     1     5     4    15
 -1.0028914240     1     5     5     1
 -0.0411487488     1     5     5     2
 -0.0137249446     1     5     5     4
 0.0089043218     1     5     5     6
 0.0119111128     1     5     5     9
 0.0029222790     1     5     5    10
 0.0065644149     1     5     5    12
 -0.0023237852     1     5     6    11
 -0.0003868828     1     5     6    15
 0.0000343204     1     5     7    14
 0.0004788505     1     5     8    14
 0.0023755058     1     5     9    11
 0.0004494268     1     5     9    15
 0.0016524245     1     5    10    11
 0.0002832097     1     5    10    15
 0.3472056066     1     5    11     1
 0.0218349916     1     5    11     2
 0.0077043667     1     5    11     4
 -0.0089430205     1     5    11     6
 -0.0065369184     1     5    11     9
 -0.0000565568     1     5    11    10
 -0.0039602492     1     5    11    12
 0.0009596712     1     5    12    11
 -0.0006610398     1     5    12    15
 0.0003150841     1     5    13    14
 0.0006090745     1     5    14     3
 -0.0018744420     1     5    14     7
 -0.0010744869     1     5    14     8
 -0.0031665617     1     5    14    13
 -0.0246279570     1     5    15     1
 -0.0016776502     1     5    15     2
 -0.0010467099     1     5    15     4
 0.0013742213     1     5    15     6
 0.0024621266     1     5    15     9
 -0.0027276484     1     5    15    10
 0.0005576536     1     5    15    12
 0.1485746771     1     6     2     1
 0.0016599877     1     6     2     2
 0.0004518459     1     6     2     4
 0.0003020457     1     6     2     9
 -0.0015161082     1     6     2    10
 0.0004796964     1     6     2    12
 -0.0044879044     1     6     3     3
 -0.0024467370     1     6     3     7
 -0.0032433306     1     6     3     8
 -0.0043046862     1     6     3    13
 -0.0809788599     1     6     4     1
 -0.0073861465     1     6     4     2
 -0.0092374814     1     6     4     4
 -0.0001179990     1     6     4     9
 0.0046118212     1     6     4    10
 -0.0015729750     1     6     4    12
 -0.0089043218     1     6     5     5
 0.0066281448     1     6     5    11
 -0.0017749992     1     6     5    15
 -0.3479682796     1     6     6     1
 -0.0017465015     1     6     6     2
 -0.0041293249     1     6     6     4
 -0.0003839297     1     6     6     9
 0.0018988877     1     6     6    10
 -0.0004285104     1     6     6    12
 -0.0045488411     1     6     7     3
 -0.0017820769     1     6     7     7
 -0.0017627573     1     6     7     8
 -0.0036053967     1     6     7    13
 -0.0027769062     1     6     8     3
 -0.0008509299     1     6     8     7
 -0.0006144057     1     6     8     8
 -0.0010731237     1     6     8    13
 -0.1073036871     1     6     9     1
 -0.0018597879     1     6     9     2
 -0.0029974232     1     6     9     4
 0.0006962160     1     6     9     9
 0.0016043515     1     6     9    10
 -0.0003464003     1     6     9    12
 0.0899219199     1     6    10     1
 0.0036928377     1     6    10     2
 0.0082935833     1     6    10     4
 0.0005845425     1     6    10     9
 -0.0051628726     1     6    10    10
 0.0002385524     1     6    10    12
 0.0089430205     1     6    11     5
 -0.0068886866     1     6    11    11
 0.0004430652     1     6    11    15
 -0.0571832224     1     6    12     1
 -0.0009875579     1     6    12     2
 -0.0026903817     1     6    12     4
 -0.0001447336     1     6    12     9
 0.0003959782     1     6    12    10
 0.0003987285     1     6    12    12
 -0.0061631972     1     6    13     3
 -0.0028291026     1     6    13     7
 -0.0020947780     1     6    13     8
 -0.0053967680     1     6    13    13
 0.0008690561     1     6    14    14
 -0.0013742213     1     6    15     5
 0.0000061380     1     6    15    11
 0.0004442169     1     6    15    15
 -0.0025969361     1     7     2     3
 0.0004857170     1     7     2     8
 0.0010279054     1     7     2    13
 -0.1793561224     1     7     3     1
 -0.0132329506     1     7     3     2
 -0.0023704902     1     7     3     4
 0.0024467370     1     7     3     6
 0.0005549392     1     7     3     9
 -0.0003366565     1     7     3    10
 0.0025242356     1     7     3    12
 0.0013029524     1     7     4     3
 -0.0017649946     1     7     4     8
 0.0009058536     1     7     4    13
 0.0019540524     1     7     5    14
 -0.0021098200     1     7     6     3
 -0.0009098979     1     7     6     8
 -0.0007707519     1     7     6    13
 -0.3255042924     1     7     7     1
 -0.0048782352     1     7     7     2
 -0.0027529398     1     7     7     4
 0.0017820769     1     7     7     6
 0.0009294894     1     7     7     9
 0.0006155098     1     7     7    10
 0.0005954795     1     7     7    12
 -0.0989699960     1     7     8     1
 -0.0038247422     1     7     8     2
 -0.0029060779     1     7     8     4
 0.0008509299     1     7     8     6
 0.0016194702     1     7     8     9
 -0.0005506665     1     7     8    10
 0.0012690633     1     7     8    12
 -0.0019893127     1     7     9     3
 0.0005464578     1     7     9     8
 0.0005969178     1     7     9    13
 -0.0001973866     1     7    10     3
 -0.0003018575     1     7    10     8
 0.0003780097     1     7    10    13
 0.0003331485     1     7    11    14
 0.0008363310     1     7    12     3
 0.0005656949     1     7    12     8
 0.0000714540     1     7    12    13
 -0.1676520113     1     7    13     1
 -0.0080831223     1     7    13     2
 -0.0026223827     1     7    13     4
 0.0028291026     1     7    13     6
 0.0026684639     1     7    13     9
 0.0005401977     1     7    13    10
 0.0014359108     1     7    13    12
 0.0018744420     1     7    14     5
 0.0003706798     1     7    14    11
 -0.0014344918     1     7    14    15
 -0.0014279536     1     7    15    14
 -0.0032382703     1     8     2     3
 -0.0004857170     1     8     2     7
 -0.0000186363     1     8     2    13
 -0.1078061893     1     8     3     1
 -0.0117621456     1     8     3     2
 0.0023755327     1     8     3     4
 0.0032433306     1     8     3     6
 0.0017952059     1     8     3     9
 -0.0033729992     1     8     3    10
 0.0029048892     1     8     3    12
 0.0049847605     1     8     4     3
 0.0017649946     1     8     4     7
 0.0039674568     1     8     4    13
 0.0015773077     1     8     5    14
 0.0004170977     1     8     6     3
 0.0009098979     1     8     6     7
 0.0010260074     1     8     6    13
 -0.0989699960     1     8     7     1
 -0.0043084211     1     8     7     2
 -0.0011669404     1     8     7     4
 0.0017627573     1     8     7     6
 0.0010753114     1     8     7     9
 -0.0002548596     1     8     7    10
 0.0007069627     1     8     7    12
 -0.4548827232     1     8     8     1
 -0.0033888531     1     8     8     2
 -0.0028464082     1     8     8     4
 0.0006144057     1     8     8     6
 0.0012538023     1     8     8     9
 -0.0002014083     1     8     8    10
 0.0009571427     1     8     8    12
 -0.0029061688     1     8     9     3
 -0.0005464578     1     8     9     7
 -0.0004835570     1     8     9    13
 0.0005275458     1     8    10     3
 0.0003018575     1     8    10     7
 0.0008306622     1     8    10    13
 0.0002352348     1     8    11    14
 -0.0006294093     1     8    12     3
 -0.0005656949     1     8    12     7
 -0.0009330753     1     8    12    13
 -0.0846252418     1     8    13     1
 -0.0065457567     1     8    13     2
 -0.0032506662     1     8    13     4
 0.0020947780     1     8    13     6
 0.0019243995     1     8    13     9
 0.0011602261     1     8    13    10
 0.0010385573     1     8    13    12
 0.0010744869     1     8    14     5
 0.0006288903     1     8    14    11
 -0.0011778083     1     8    14    15
 -0.0011497691     1     8    15    14
 0.1186594157     1     9     2     1
 0.0019941332     1     9     2     2
 -0.0004452070     1     9     2     4
 -0.0003020457     1     9     2     6
 -0.0009564954     1     9     2    10
 0.0003070793     1     9     2    12
 -0.0001958869     1     9     3     3
 -0.0005549392     1     9     3     7
 -0.0017952059     1     9     3     8
 -0.0008386259     1     9     3    13
 -0.0640504790     1     9     4     1
 -0.0080062148     1     9     4     2
 -0.0096848328     1     9     4     4
 0.0001179990     1     9     4     6
 0.0047484994     1     9     4    10
 -0.0015796264     1     9     4    12
 -0.0119111128     1     9     5     5
 0.0089304075     1     9     5    11
 -0.0020288736     1     9     5    15
 -0.1073036871     1     9     6     1
 -0.0021306736     1     9     6     2
 -0.0029088528     1     9     6     4
 0.0003839297     1     9     6     6
 0.0010216476     1     9     6    10
 -0.0002013959     1     9     6    12
 -0.0025733826     1     9     7     3
 -0.0009294894     1     9     7     7
 -0.0010753114     1     9     7     8
 -0.0020686683     1     9     7    13
 -0.0046622671     1     9     8     3
 -0.0016194702     1     9     8     7
 -0.0012538023     1     9     8     8
 -0.0024054805     1     9     8    13
 -0.4548353564     1     9     9     1
 -0.0016785953     1     9     9     2
 -0.0060232238     1     9     9     4
 -0.0006962160     1     9     9     6
 0.0035761308     1     9     9    10
 -0.0008218456     1     9     9    12
 0.0559057982     1     9    10     1
 0.0043385548     1     9    10     2
 0.0066810315     1     9    10     4
 -0.0005845425     1     9    10     6
 -0.0040184688     1     9    10    10
 -0.0001073095     1     9    10    12
 0.0065369184     1     9    11     5
 -0.0051135712     1     9    11    11
 0.0003205270     1     9    11    15
 -0.0197103121     1     9    12     1
 -0.0010978408     1     9    12     2
 -0.0023253236     1     9    12     4
 0.0001447336     1     9    12     6
 0.0000713672     1     9    12    10
 0.0004958138     1     9    12    12
 -0.0058106499     1     9    13     3
 -0.0026684639     1     9    13     7
 -0.0019243995     1     9    13     8
 -0.0051039460     1     9    13    13
 0.0009025741     1     9    14    14
 -0.0024621266     1     9    15     5
 0.0007676858     1     9    15    11
 0.0003979755     1     9    15    15
 -0.0399132867     1    10     2     1
 -0.0056871331     1    10     2     2
 0.0042050103     1    10     2     4
 0.0015161082     1    10     2     6
 0.0009564954     1    10     2     9
 -0.0001344795     1    10     2    12
 -0.0025241465     1    10     3     3
 0.0003366565     1    10     3     7
 0.0033729992     1    10     3     8
 -0.0002305569     1    10     3    13
 0.2689244262     1    10     4     1
 0.0226579201     1    10     4     2
 0.0066845797     1    10     4     4
 -0.0046118212     1    10     4     6
 -0.0047484994     1    10     4     9
 0.0010374154     1    10     4    12
 -0.0029222790     1    10     5     5
 0.0018457882     1    10     5    11
 0.0030693442     1    10     5    15
 0.0899219199     1    10     6     1
 0.0051887360     1    10     6     2
 0.0037941197     1    10     6     4
 -0.0018988877     1    10     6     6
 -0.0010216476     1    10     6     9
 -0.0001563404     1    10     6    12
 0.0001792699     1    10     7     3
 -0.0006155098     1    10     7     7
 0.0002548596     1    10     7     8
 -0.0001604343     1    10     7    13
 0.0038909492     1    10     8     3
 0.0005506665     1    10     8     7
 0.0002014083     1    10     8     8
 -0.0003245898     1    10     8    13
 0.0559057982     1    10     9     1
 0.0052675424     1    10     9     2
 0.0020082201     1    10     9     4
 -0.0016043515     1    10     9     6
 -0.0035761308     1    10     9     9
 -0.0001794164     1    10     9    12
 -0.5360007444     1    10    10     1
 -0.0133722022     1    10    10     2
 -0.0028858281     1    10    10     4
 0.0051628726     1    10    10     6
 0.0040184688     1    10    10     9
 0.0028532882     1    10    10    12
 0.0000565568     1    10    11     5
 -0.0001092659     1    10    11    11
 0.0004454611     1    10    11    15
 0.0456911528     1    10    12     1
 0.0025139038     1    10    12     2
 0.0058146777     1    10    12     4
 -0.0003959782     1    10    12     6
 -0.0000713672     1    10    12     9
 -0.0013294421     1    10    12    12
 -0.0013711368     1    10    13     3
 -0.0005401977     1    10    13     7
 -0.0011602261     1    10    13     8
 -0.0003980774     1    10    13    13
 -0.0023126878     1    10    14    14
 0.0027276484     1    10    15     5
 0.0007410414     1    10    15    11
 -0.0012619309     1    10    15    15
 0.0059271966     1    11     2     5
 -0.0007699849     1    11     2    15
 -0.0037385713     1    11     3    14
 0.0011394237     1    11     4     5
 0.0036514534     1    11     4    15
 0.3472056066     1    11     5     1
 0.0293341084     1    11     5     2
 0.0093403841     1    11     5     4
 -0.0066281448     1    11     5     6
 -0.0089304075     1    11     5     9
 -0.0018457882     1    11     5    10
 -0.0049314193     1    11     5    12
 0.0023237852     1    11     6     5
 0.0004412808     1    11     6    15
 -0.0000445619     1    11     7    14
 -0.0003987809     1    11     8    14
 -0.0023755058     1    11     9     5
 -0.0004439680     1    11     9    15
 -0.0016524245     1    11    10     5
 -0.0002986646     1    11    10    15
 -0.6618686870     1    11    11     1
 -0.0190008777     1    11    11     2
 -0.0065023999     1    11    11     4
 0.0068886866     1    11    11     6
 0.0051135712     1    11    11     9
 0.0001092659     1    11    11    10
 0.0030745086     1    11    11    12
 -0.0009596712     1    11    12     5
 0.0004465703     1    11    12    15
 -0.0002259011     1    11    13    14
 -0.0045452331     1    11    14     3
 -0.0003706798     1    11    14     7
 -0.0006288903     1    11    14     8
 -0.0007944031     1    11    14    13
 0.0300123883     1    11    15     1
 0.0008169990     1    11    15     2
 0.0049337268     1    11    15     4
 -0.0000061380     1    11    15     6
 -0.0007676858     1    11    15     9
 -0.0007410414     1    11    15    10
 0.0002582970     1    11    15    12
 0.0694849278     1    12     2     1
 0.0015091594     1    12     2     2
 -0.0013274254     1    12     2     4
 -0.0004796964     1    12     2     6
 -0.0003070793     1    12     2     9
 0.0001344795     1    12     2    10
 -0.0049534408     1    12     3     3
 -0.0025242356     1    12     3     7
 -0.0029048892     1    12     3     8
 -0.0044620952     1    12     3    13
 -0.0408707223     1    12     4     1
 -0.0060178659     1    12     4     2
 -0.0003582496     1    12     4     4
 0.0015729750     1    12     4     6
 0.0015796264     1    12     4     9
 -0.0010374154     1    12     4    10
 -0.0065644149     1    12     5     5
 0.0049314193     1    12     5    11
 -0.0012165298     1    12     5    15
 -0.0571832224     1    12     6     1
 -0.0014477916     1    12     6     2
 -0.0011397663     1    12     6     4
 0.0004285104     1    12     6     6
 0.0002013959     1    12     6     9
 0.0001563404     1    12     6    10
 -0.0016756769     1    12     7     3
 -0.0005954795     1    12     7     7
 -0.0007069627     1    12     7     8
 -0.0013716774     1    12     7    13
 -0.0035003797     1    12     8     3
 -0.0012690633     1    12     8     7
 -0.0009571427     1    12     8     8
 -0.0019726891     1    12     8    13
 -0.0197103121     1    12     9     1
 -0.0014007446     1    12     9     2
 -0.0007447353     1    12     9     4
 0.0003464003     1    12     9     6
 0.0008218456     1    12     9     9
 0.0001794164     1    12     9    10
 0.0456911528     1    12    10     1
 0.0026746046     1    12    10     2
 0.0047493681     1    12    10     4
 -0.0002385524     1    12    10     6
 0.0001073095     1    12    10     9
 -0.0028532882     1    12    10    10
 0.0039602492     1    12    11     5
 -0.0030745086     1    12    11    11
 0.0001880921     1    12    11    15
 -0.4317556778     1    12    12     1
 -0.0006427936     1    12    12     2
 -0.0034667116     1    12    12     4
 -0.0003987285     1    12    12     6
 -0.0004958138     1    12    12     9
 0.0013294421     1    12    12    10
 -0.0031070932     1    12    13     3
 -0.0014359108     1    12    13     7
 -0.0010385573     1    12    13     8
 -0.0027946501     1    12    13    13
 0.0005834102     1    12    14    14
 -0.0005576536     1    12    15     5
 -0.0002582970     1    12    15    11
 0.0003434705     1    12    15    15
 -0.0070470143     1    13     2     3
 -0.0010279054     1    13     2     7
 0.0000186363     1    13     2     8
 -0.2531253930     1    13     3     1
 -0.0240610667     1    13     3     2
 -0.0055984577     1    13     3     4
 0.0043046862     1    13     3     6
 0.0008386259     1    13     3     9
 0.0002305569     1    13     3    10
 0.0044620952     1    13     3    12
 0.0002889655     1    13     4     3
 -0.0009058536     1    13     4     7
 -0.0039674568     1    13     4     8
 0.0035425644     1    13     5    14
 -0.0019237713     1    13     6     3
 0.0007707519     1    13     6     7
 -0.0010260074     1    13     6     8
 -0.1676520113     1    13     7     1
 -0.0091553842     1    13     7     2
 -0.0035456450     1    13     7     4
 0.0036053967     1    13     7     6
 0.0020686683     1    13     7     9
 0.0001604343     1    13     7    10
 0.0013716774     1    13     7    12
 -0.0846252418     1    13     8     1
 -0.0065649796     1    13     8     2
 -0.0071969001     1    13     8     4
 0.0010731237     1    13     8     6
 0.0024054805     1    13     8     9
 0.0003245898     1    13     8    10
 0.0019726891     1    13     8    12
 -0.0049814584     1    13     9     3
 -0.0005969178     1    13     9     7
 0.0004835570     1    13     9     8
 -0.0012481193     1    13    10     3
 -0.0003780097     1    13    10     7
 -0.0008306622     1    13    10     8
 0.0005677489     1    13    11    14
 0.0013195398     1    13    12     3
 -0.0000714540     1    13    12     7
 0.0009330753     1    13    12     8
 -0.5460713092     1    13    13     1
 -0.0149733758     1    13    13     2
 -0.0039429607     1    13    13     4
 0.0053967680     1    13    13     6
 0.0051039460     1    13    13     9
 0.0003980774     1    13    13    10
 0.0027946501     1    13    13    12
 0.0031665617     1    13    14     5
 0.0007944031     1    13    14    11
 -0.0025677426     1    13    14    15
 -0.0025416613     1    13    15    14
 -0.0049699251     1    14     3     5
 0.0037385713     1    14     3    11
 -0.0003458692     1    14     3    15
 -0.0043257292     1    14     5     3
 -0.0019540524     1    14     5     7
 -0.0015773077     1    14     5     8
 -0.0035425644     1    14     5    13
 -0.0000343204     1    14     7     5
 0.0000445619     1    14     7    11
 -0.0000066201     1    14     7    15
 -0.0004788505     1    14     8     5
 0.0003987809     1    14     8    11
 -0.0000279758     1    14     8    15
 -0.0007807248     1    14    11     3
 -0.0003331485     1    14    11     7
 -0.0002352348     1    14    11     8
 -0.0005677489     1    14    11    13
 -0.0003150841     1    14    13     5
 0.0002259011     1    14    13    11
 -0.0000254804     1    14    13    15
 -0.4176857739     1    14    14     1
 0.0003272107     1    14    14     2
 -0.0034833825     1    14    14     4
 -0.0008690561     1    14    14     6
 -0.0009025741     1    14    14     9
 0.0023126878     1    14    14    10
 -0.0005834102     1    14    14    12
 0.0033352842     1    14    15     3
 0.0014279536     1    14    15     7
 0.0011497691     1    14    15     8
 0.0025416613     1    14    15    13
 -0.0015335931     1    15     2     5
 0.0007699849     1    15     2    11
 0.0003458692     1    15     3    14
 0.0047478631     1    15     4     5
 -0.0036514534     1    15     4    11
 -0.0246279570     1    15     5     1
 -0.0033423017     1    15     5     2
 0.0036966416     1    15     5     4
 0.0017749992     1    15     5     6
 0.0020288736     1    15     5     9
 -0.0030693442     1    15     5    10
 0.0012165298     1    15     5    12
 0.0003868828     1    15     6     5
 -0.0004412808     1    15     6    11
 0.0000066201     1    15     7    14
 0.0000279758     1    15     8    14
 -0.0004494268     1    15     9     5
 0.0004439680     1    15     9    11
 -0.0002832097     1    15    10     5
 0.0002986646     1    15    10    11
 0.0300123883     1    15    11     1
 0.0015860656     1    15    11     2