&FCI NORB= 16,NELEC= 10,MS2=0,
 ORBSYM=1,1,1,1,1,1,1,1,1,1,1,1,1,1,1,1
 ISYM=1,
&END
 0.9824362003     1     1     2     2
 0.0725750990     1     1     2     4
 -0.1840535019     1     1     2     6
 0.1484519678     1     1     2     9
 -0.0172852585     1     1     2    10
 0.1264446527     1     1     2    13
 0.2409183832     1     1     2    16
 0.8566612961     1     1     3     3
 -0.2312410819     1     1     3     7
 0.1533882629     1     1     3     8
 -0.3099622414     1     1     3    12
 0.0725750990     1     1     4     2
 0.9537252046     1     1     4     4
 0.1061498250     1     1     4     6
 -0.1595357205     1     1     4     9
 -0.3669675982     1     1     4    10
 0.0829992528     1     1     4    13
 0.1220703052     1     1     4    16
 1.0084270541     1     1     5     5
 0.4649956838     1     1     5    11
 -0.0183748441     1     1     5    15
 -0.1840535019     1     1     6     2
 0.1061498250     1     1     6     4
 0.3990598427     1     1     6     6
 -0.1605331283     1     1     6     9
 -0.0848386832     1     1     6    10
 -0.0589118905     1     1     6    13
 -0.1125740920     1     1     6    16
 -0.2312410819     1     1     7     3
 0.3924245873     1     1     7     7
 -0.1543978522     1     1     7     8
 0.2065731526     1     1     7    12
 0.1533882629     1     1     8     3
 -0.1543978522     1     1     8     7
 0.5538697434     1     1     8     8
 -0.1089694446     1     1     8    12
 0.1484519678     1     1     9     2
 -0.1595357205     1     1     9     4
 -0.1605331283     1     1     9     6
 0.5745879856     1     1     9     9
 0.1223686239     1     1     9    10
 0.0005502712     1     1     9    13
 0.0152528830     1     1     9    16
 -0.0172852585     1     1    10     2
 -0.3669675982     1     1    10     4
 -0.0848386832     1     1    10     6
 0.1223686239     1     1    10     9
 0.7945986597     1     1    10    10
 -0.0480810535     1     1    10    13
 -0.0979150696     1     1    10    16
 0.4649956838     1     1    11     5
 0.9483800756     1     1    11    11
 -0.0306120588     1     1    11    15
 -0.3099622414     1     1    12     3
 0.2065731526     1     1    12     7
 -0.1089694446     1     1    12     8
 0.7471524215     1     1    12    12
 0.1264446527     1     1    13     2
 0.0829992528     1     1    13     4
 -0.0589118905     1     1    13     6
 0.0005502712     1     1    13     9
 -0.0480810535     1     1    13    10
 0.5637704951     1     1    13    13
 0.0919302823     1     1    13    16
 0.5155742976     1     1    14    14
 -0.0183748441     1     1    15     5
 -0.0306120588     1     1    15    11
 0.5129050185     1     1    15    15
 0.2409183832     1     1    16     2
 0.1220703052     1     1    16     4
 -0.1125740920     1     1    16     6
 0.0152528830     1     1    16     9
 -0.0979150696     1     1    16    10
 0.0919302823     1     1    16    13
 0.7447799178     1     1    16    16
 -0.9824362003     1     2     2     1
 -0.0068622925     1     2     2     4
 -0.0026479225     1     2     2     6
 0.0045029244     1     2     2     9
 0.0088985945     1     2     2    10
 -0.0007329191     1     2     2    13
 -0.0007636824     1     2     2    16
 0.0298755535     1     2     3     3
 -0.0166631084     1     2     3     7
 0.0165932664     1     2     3     8
 -0.0333742138     1     2     3    12
 -0.0725750990     1     2     4     1
 0.0356585541     1     2     4     4
 0.0095983470     1     2     4     6
 -0.0169545278     1     2     4     9
 -0.0360655780     1     2     4    10
 0.0049953193     1     2     4    13
 0.0087101568     1     2     4    16
 0.0413950402     1     2     5     5
 0.0481329439     1     2     5    11
 -0.0029425170     1     2     5    15
 0.1840535019     1     2     6     1
 0.0097443665     1     2     6     4
 0.0025596389     1     2     6     6
 -0.0048751198     1     2     6     9
 -0.0101772141     1     2     6    10
 0.0013522262     1     2     6    13
 0.0021365836     1     2     6    16
 -0.0134193618     1     2     7     3
 0.0073705079     1     2     7     7
 -0.0074465076     1     2     7     8
 0.0153178670     1     2     7    12
 0.0118006414     1     2     8     3
 -0.0064687545     1     2     8     7
 0.0061584828     1     2     8     8
 -0.0127008979     1     2     8    12
 -0.1484519678     1     2     9     1
 -0.0144594907     1     2     9     4
 -0.0039302148     1     2     9     6
 0.0067404331     1     2     9     9
 0.0157709468     1     2     9    10
 -0.0025976013     1     2     9    13
 -0.0036216045     1     2     9    16
 0.0172852585     1     2    10     1
 -0.0244476547     1     2    10     4
 -0.0061522263     1     2    10     6
 0.0119659031     1     2    10     9
 0.0266411333     1     2    10    10
 -0.0052572278     1     2    10    13
 -0.0075460509     1     2    10    16
 0.0322893273     1     2    11     5
 0.0403961057     1     2    11    11
 -0.0017123018     1     2    11    15
 -0.0208807468     1     2    12     3
 0.0118935477     1     2    12     7
 -0.0113225845     1     2    12     8
 0.0253465025     1     2    12    12
 -0.1264446527     1     2    13     1
 0.0028169233     1     2    13     4
 0.0006735298     1     2    13     6
 -0.0017655791     1     2    13     9
 -0.0045421094     1     2    13    10
 0.0012026824     1     2    13    13
 0.0014989729     1     2    13    16
 -0.0004372241     1     2    14    14
 -0.0010899741     1     2    15     5
 -0.0003827998     1     2    15    11
 0.0000019931     1     2    15    15
 -0.2409183832     1     2    16     1
 0.0034211149     1     2    16     4
 0.0005501166     1     2    16     6
 -0.0012801836     1     2    16     9
 -0.0039384870     1     2    16    10
 0.0011499286     1     2    16    13
 0.0025748654     1     2    16    16
 -0.0031098275     1     3     2     7
 0.0046787562     1     3     2     8
 -0.0123501509     1     3     2    12
 -0.8566612961     1     3     3     1
 -0.0298755535     1     3     3     2
 -0.0104024511     1     3     3     4
 0.0049060966     1     3     3     6
 0.0007618698     1     3     3     9
 0.0050532247     1     3     3    10
 -0.0116063428     1     3     3    13
 -0.0154973688     1     3     3    16
 0.0018369248     1     3     4     7
 -0.0061132841     1     3     4     8
 -0.0021779598     1     3     4    12
 -0.0059317282     1     3     5    14
 -0.0024984384     1     3     6     7
 -0.0003677458     1     3     6     8
 -0.0017521159     1     3     6    12
 0.2312410819     1     3     7     1
 0.0134193618     1     3     7     2
 0.0045167727     1     3     7     4
 -0.0062092794     1     3     7     6
 0.0034581583     1     3     7     9
 -0.0009551927     1     3     7    10
 0.0052170070     1     3     7    13
 0.0080223607     1     3     7    16
 -0.1533882629     1     3     8     1
 -0.0118006414     1     3     8     2
 -0.0035853972     1     3     8     4
 0.0048971885     1     3     8     6
 -0.0089616394     1     3     8     9
 -0.0034089351     1     3     8    10
 -0.0057458408     1     3     8    13
 -0.0052925679     1     3     8    16
 0.0022593663     1     3     9     7
 -0.0049112857     1     3     9     8
 0.0054383914     1     3     9    12
 -0.0011629464     1     3    10     7
 0.0021815471     1     3    10     8
 -0.0041855684     1     3    10    12
 -0.0000649281     1     3    11    14
 0.3099622414     1     3    12     1
 0.0208807468     1     3    12     2
 0.0072951866     1     3    12     4
 -0.0082728088     1     3    12     6
 0.0059947439     1     3    12     9
 -0.0078410530     1     3    12    10
 0.0094286746     1     3    12    13
 0.0201110861     1     3    12    16
 -0.0008435759     1     3    13     7
 -0.0006597288     1     3    13     8
 -0.0037405381     1     3    13    12
 0.0009232444     1     3    14     5
 0.0082595172     1     3    14    11
 -0.0065132546     1     3    14    15
 -0.0061637338     1     3    15    14
 -0.0000737008     1     3    16     7
 0.0016827221     1     3    16     8
 0.0024369077     1     3    16    12
 -0.0725750990     1     4     2     1
 0.0068622925     1     4     2     2
 -0.0002019756     1     4     2     6
 -0.0024589846     1     4     2     9
 -0.0114348186     1     4     2    10
 0.0021832052     1     4     2    13
 0.0051873865     1     4     2    16
 0.0104024511     1     4     3     3
 -0.0026563565     1     4     3     7
 -0.0025826612     1     4     3     8
 -0.0094274878     1     4     3    12
 -0.9537252046     1     4     4     1
 -0.0356585541     1     4     4     2
 0.0110142707     1     4     4     6
 -0.0129171709     1     4     4     9
 -0.0059607838     1     4     4    10
 0.0004316263     1     4     4    13
 -0.0177590667     1     4     4    16
 0.0139857636     1     4     5     5
 0.0151554851     1     4     5    11
 0.0055876613     1     4     5    15
 -0.1061498250     1     4     6     1
 -0.0097443665     1     4     6     2
 0.0056625432     1     4     6     6
 -0.0052332449     1     4     6     9
 -0.0023301474     1     4     6    10
 -0.0011304198     1     4     6    13
 -0.0059103876     1     4     6    16
 -0.0045167727     1     4     7     3
 0.0038980163     1     4     7     7
 -0.0017041537     1     4     7     8
 0.0067817506     1     4     7    12
 0.0035853972     1     4     8     3
 -0.0041393825     1     4     8     7
 0.0062467912     1     4     8     8
 -0.0109073743     1     4     8    12
 0.1595357205     1     4     9     1
 0.0144594907     1     4     9     2
 -0.0070893679     1     4     9     6
 0.0111741507     1     4     9     9
 -0.0001682547     1     4     9    10
 0.0035508744     1     4     9    13
 0.0090213928     1     4     9    16
 0.3669675982     1     4    10     1
 0.0244476547     1     4    10     2
 -0.0123343183     1     4    10     6
 0.0105364450     1     4    10     9
 0.0046855295     1     4    10    10
 0.0096439366     1     4    10    13
 0.0199617677     1     4    10    16
 0.0110279415     1     4    11     5
 0.0135704710     1     4    11    11
 -0.0000636652     1     4    11    15
 -0.0072951866     1     4    12     3
 0.0035484899     1     4    12     7
 -0.0028230030     1     4    12     8
 0.0056249238     1     4    12    12
 -0.0829992528     1     4    13     1
 -0.0028169233     1     4    13     2
 0.0003396380     1     4    13     6
 0.0018488416     1     4    13     9
 0.0091594368     1     4    13    10
 0.0004335460     1     4    13    13
 -0.0041849613     1     4    13    16
 0.0061555832     1     4    14    14
 -0.0009815285     1     4    15     5
 -0.0083615325     1     4    15    11
 0.0042864594     1     4    15    15
 -0.1220703052     1     4    16     1
 -0.0034211149     1     4    16     2
 0.0017951623     1     4    16     6
 -0.0029971267     1     4    16     9
 -0.0004380189     1     4    16    10
 -0.0015655234     1     4    16    13
 -0.0001765326     1     4    16    16
 0.0156359396     1     5     2    11
 -0.0018027112     1     5     2    15
 -0.0069794106     1     5     3    14
 0.0042089217     1     5     4    11
 0.0066676767     1     5     4    15
 -1.0084270541     1     5     5     1
 -0.0413950402     1     5     5     2
 -0.0139857636     1     5     5     4
 0.0104151948     1     5     5     6
 -0.0125478254     1     5     5     9
 0.0093167702     1     5     5    10
 -0.0124556003     1     5     5    13
 -0.0129924181     1     5     5    16
 0.0002311279     1     5     6    11
 0.0010977827     1     5     6    15
 0.0013929595     1     5     7    14
 -0.0006883611     1     5     8    14
 0.0048528977     1     5     9    11
 0.0002704679     1     5     9    15
 -0.0025566559     1     5    10    11
 -0.0016134493     1     5    10    15
 -0.4649956838     1     5    11     1
 -0.0322893273     1     5    11     2
 -0.0110279415     1     5    11     4
 0.0132434669     1     5    11     6
 -0.0109639020     1     5    11     9
 0.0077267656     1     5    11    10
 -0.0144534382     1     5    11    13
 -0.0270050993     1     5    11    16
 0.0008728701     1     5    12    14
 0.0006130170     1     5    13    11
 -0.0008686251     1     5    13    15
 -0.0009232444     1     5    14     3
 -0.0019211690     1     5    14     7
 0.0023840196     1     5    14     8
 -0.0059996305     1     5    14    12
 0.0183748441     1     5    15     1
 0.0010899741     1     5    15     2
 0.0009815285     1     5    15     4
 -0.0014956260     1     5    15     6
 0.0043176168     1     5    15     9
 0.0047789843     1     5    15    10
 -0.0012028166     1     5    15    13
 -0.0009933052     1     5    15    16
 -0.0113433698     1     5    16    11
 -0.0007176966     1     5    16    15
 0.1840535019     1     6     2     1
 0.0026479225     1     6     2     2
 0.0002019756     1     6     2     4
 -0.0009407611     1     6     2     9
 -0.0038964414     1     6     2    10
 0.0006396013     1     6     2    13
 0.0015387636     1     6     2    16
 -0.0049060966     1     6     3     3
 0.0037300079     1     6     3     7
 -0.0052966630     1     6     3     8
 0.0065429952     1     6     3    12
 -0.1061498250     1     6     4     1
 -0.0095983470     1     6     4     2
 -0.0110142707     1     6     4     4
 0.0018702603     1     6     4     9
 0.0099729075     1     6     4    10
 -0.0014735300     1     6     4    13
 -0.0077230133     1     6     4    16
 -0.0104151948     1     6     5     5
 -0.0128518668     1     6     5    11
 0.0025990640     1     6     5    15
 -0.3990598427     1     6     6     1
 -0.0025596389     1     6     6     2
 -0.0056625432     1     6     6     4
 0.0013483691     1     6     6     9
 0.0051282806     1     6     6    10
 -0.0011275512     1     6     6    13
 -0.0027935960     1     6     6    16
 0.0062092794     1     6     7     3
 -0.0029282624     1     6     7     7
 0.0034513859     1     6     7     8
 -0.0063898010     1     6     7    12
 -0.0048971885     1     6     8     3
 0.0020286406     1     6     8     7
 -0.0012290807     1     6     8     8
 0.0034107791     1     6     8    12
 0.1605331283     1     6     9     1
 0.0039302148     1     6     9     2
 0.0070893679     1     6     9     4
 -0.0002568747     1     6     9     9
 -0.0075660711     1     6     9    10
 0.0021361733     1     6     9    13
 0.0040981763     1     6     9    16
 0.0848386832     1     6    10     1
 0.0061522263     1     6    10     2
 0.0123343183     1     6    10     4
 -0.0032927328     1     6    10     9
 -0.0116913510     1     6    10    10
 0.0049428230     1     6    10    13
 0.0086108085     1     6    10    16
 -0.0132434669     1     6    11     5
 -0.0158619536     1     6    11    11
 0.0008217532     1     6    11    15
 0.0082728088     1     6    12     3
 -0.0047276928     1     6    12     7
 0.0047253024     1     6    12     8
 -0.0103835280     1     6    12    12
 0.0589118905     1     6    13     1
 -0.0006735298     1     6    13     2
 -0.0003396380     1     6    13     4
 0.0007948212     1     6    13     9
 0.0034146451     1     6    13    10
 -0.0000468617     1     6    13    13
 -0.0014885002     1     6    13    16
 0.0019130885     1     6    14    14
 0.0014956260     1     6    15     5
 -0.0005339895     1     6    15    11
 0.0011827574     1     6    15    15
 0.1125740920     1     6    16     1
 -0.0005501166     1     6    16     2
 -0.0017951623     1     6    16     4
 0.0000373034     1     6    16     9
 0.0018800689     1     6    16    10
 -0.0008342833     1     6    16    13
 -0.0007784074     1     6    16    16
 0.0031098275     1     7     2     3
 -0.0009799173     1     7     2     8
 0.0033103219     1     7     2    12
 0.2312410819     1     7     3     1
 0.0166631084     1     7     3     2
 0.0026563565     1     7     3     4
 -0.0037300079     1     7     3     6
 0.0012337568     1     7     3     9
 0.0003013285     1     7     3    10
 0.0060706201     1     7     3    13
 0.0081527339     1     7     3    16
 -0.0018369248     1     7     4     3
 0.0024326074     1     7     4     8
 0.0031979469     1     7     4    12
 0.0033303336     1     7     5    14
 0.0024984384     1     7     6     3
 0.0014230089     1     7     6     8
 -0.0016536937     1     7     6    12
 -0.3924245873     1     7     7     1
 -0.0073705079     1     7     7     2
 -0.0038980163     1     7     7     4
 0.0029282624     1     7     7     6
 -0.0012347683     1     7     7     9
 0.0018522278     1     7     7    10
 -0.0030402928     1     7     7    13
 -0.0046428127     1     7     7    16
 0.1543978522     1     7     8     1
 0.0064687545     1     7     8     2
 0.0041393825     1     7     8     4
 -0.0020286406     1     7     8     6
 0.0037256545     1     7     8     9
 -0.0002725924     1     7     8    10
 0.0034258424     1     7     8    13
 0.0032769262     1     7     8    16
 -0.0022593663     1     7     9     3
 0.0014741674     1     7     9     8
 -0.0005092600     1     7     9    12
 0.0011629464     1     7    10     3
 -0.0005874470     1     7    10     8
 0.0009950769     1     7    10    12
 0.0000374335     1     7    11    14
 -0.2065731526     1     7    12     1
 -0.0118935477     1     7    12     2
 -0.0035484899     1     7    12     4
 0.0047276928     1     7    12     6
 -0.0036014002     1     7    12     9
 0.0037411000     1     7    12    10
 -0.0051305970     1     7    12    13
 -0.0110121025     1     7    12    16
 0.0008435759     1     7    13     3
 0.0007775534     1     7    13     8
 0.0011540345     1     7    13    12
 0.0019211690     1     7    14     5
 -0.0017080501     1     7    14    11
 0.0033693388     1     7    14    15
 0.0033044592     1     7    15    14
 0.0000737008     1     7    16     3
 -0.0008761329     1     7    16     8
 -0.0013543492     1     7    16    12
 -0.0046787562     1     8     2     3
 0.0009799173     1     8     2     7
 -0.0012700095     1     8     2    12
 -0.1533882629     1     8     3     1
 -0.0165932664     1     8     3     2
 0.0025826612     1     8     3     4
 0.0052966630     1     8     3     6
 -0.0040939450     1     8     3     9
 -0.0055950176     1     8     3    10
 -0.0051488910     1     8     3    13
 -0.0070784213     1     8     3    16
 0.0061132841     1     8     4     3
 -0.0024326074     1     8     4     7
 -0.0080197919     1     8     4    12
 -0.0031055358     1     8     5    14
 0.0003677458     1     8     6     3
 -0.0014230089     1     8     6     7
 -0.0013253332     1     8     6    12
 0.1543978522     1     8     7     1
 0.0074465076     1     8     7     2
 0.0017041537     1     8     7     4
 -0.0034513859     1     8     7     6
 0.0022559389     1     8     7     9
 0.0003266880     1     8     7    10
 0.0026530291     1     8     7    13
 0.0041544495     1     8     7    16
 -0.5538697434     1     8     8     1
 -0.0061584828     1     8     8     2
 -0.0062467912     1     8     8     4
 0.0012290807     1     8     8     6
 -0.0023976369     1     8     8     9
 0.0024090115     1     8     8    10
 -0.0034558902     1     8     8    13
 -0.0034442535     1     8     8    16
 0.0049112857     1     8     9     3
 -0.0014741674     1     8     9     7
 -0.0023905801     1     8     9    12
 -0.0021815471     1     8    10     3
 0.0005874470     1     8    10     7
 0.0003136859     1     8    10    12
 -0.0001073415     1     8    11    14
 0.1089694446     1     8    12     1
 0.0113225845     1     8    12     2
 0.0028230030     1     8    12     4
 -0.0047253024     1     8    12     6
 0.0037418056     1     8    12     9
 -0.0029248925     1     8    12    10
 0.0048741690     1     8    12    13
 0.0104473256     1     8    12    16
 0.0006597288     1     8    13     3
 -0.0007775534     1     8    13     7
 -0.0026044684     1     8    13    12
 -0.0023840196     1     8    14     5
 0.0009157409     1     8    14    11
 -0.0030609327     1     8    14    15
 -0.0030409228     1     8    15    14
 -0.0016827221     1     8    16     3
 0.0008761329     1     8    16     7
 0.0030134323     1     8    16    12
 -0.1484519678     1     9     2     1
 -0.0045029244     1     9     2     2
 0.0024589846     1     9     2     4
 0.0009407611     1     9     2     6
 0.0036979316     1     9     2    10
 -0.0008085905     1     9     2    13
 -0.0023233749     1     9     2    16
 -0.0007618698     1     9     3     3
 -0.0012337568     1     9     3     7
 0.0040939450     1     9     3     8
 -0.0006359282     1     9     3    12
 0.1595357205     1     9     4     1
 0.0169545278     1     9     4     2
 0.0129171709     1     9     4     4
 -0.0018702603     1     9     4     6
 -0.0107118102     1     9     4    10
 0.0017512973     1     9     4    13
 0.0120996055     1     9     4    16
 0.0125478254     1     9     5     5
 0.0156292387     1     9     5    11
 -0.0040648767     1     9     5    15
 0.1605331283     1     9     6     1
 0.0048751198     1     9     6     2
 0.0052332449     1     9     6     4
 -0.0013483691     1     9     6     6
 -0.0042711411     1     9     6    10
 0.0013416689     1     9     6    13
 0.0040628187     1     9     6    16
 -0.0034581583     1     9     7     3
 0.0012347683     1     9     7     7
 -0.0022559389     1     9     7     8
 0.0030901318     1     9     7    12
 0.0089616394     1     9     8     3
 -0.0037256545     1     9     8     7
 0.0023976369     1     9     8     8
 -0.0061300421     1     9     8    12
 -0.5745879856     1     9     9     1
 -0.0067404331     1     9     9     2
 -0.0111741507     1     9     9     4
 0.0002568747     1     9     9     6
 0.0116681368     1     9     9    10
 -0.0034457558     1     9     9    13
 -0.0066971077     1     9     9    16
 -0.1223686239     1     9    10     1
 -0.0119659031     1     9    10     2
 -0.0105364450     1     9    10     4
 0.0032927328     1     9    10     6
 0.0090905038     1     9    10    10
 -0.0068582893     1     9    10    13
 -0.0128972633     1     9    10    16
 0.0109639020     1     9    11     5
 0.0134523506     1     9    11    11
 -0.0008698451     1     9    11    15
 -0.0059947439     1     9    12     3
 0.0036014002     1     9    12     7
 -0.0037418056     1     9    12     8
 0.0085398315     1     9    12    12
 -0.0005502712     1     9    13     1
 0.0017655791     1     9    13     2
 -0.0018488416     1     9    13     4
 -0.0007948212     1     9    13     6
 -0.0031515790     1     9    13    10
 -0.0001854328     1     9    13    13
 0.0020739702     1     9    13    16
 -0.0031205366     1     9    14    14
 -0.0043176168     1     9    15     5
 -0.0011697410     1     9    15    11
 -0.0018377377     1     9    15    15
 -0.0152528830     1     9    16     1
 0.0012801836     1     9    16     2
 0.0029971267     1     9    16     4
 -0.0000373034     1     9    16     6
 -0.0030003383     1     9    16    10
 0.0013228359     1     9    16    13
 0.0011373677     1     9    16    16
 0.0172852585     1    10     2     1
 -0.0088985945     1    10     2     2
 0.0114348186     1    10     2     4
 0.0038964414     1    10     2     6
 -0.0036979316     1    10     2     9
 -0.0007100190     1    10     2    13
 -0.0036045077     1    10     2    16
 -0.0050532247     1    10     3     3
 -0.0003013285     1    10     3     7
 0.0055950176     1    10     3     8
 0.0035323347     1    10     3    12
 0.3669675982     1    10     4     1
 0.0360655780     1    10     4     2
 0.0059607838     1    10     4     4
 -0.0099729075     1    10     4     6
 0.0107118102     1    10     4     9
 0.0005937133     1    10     4    13
 0.0204450280     1    10     4    16
 -0.0093167702     1    10     5     5
 -0.0098843396     1    10     5    11
 -0.0063508114     1    10     5    15
 0.0848386832     1    10     6     1
 0.0101772141     1    10     6     2
 0.0023301474     1    10     6     4
 -0.0051282806     1    10     6     6
 0.0042711411     1    10     6     9
 0.0015324932     1    10     6    13
 0.0067433785     1    10     6    16
 0.0009551927     1    10     7     3
 -0.0018522278     1    10     7     7
 -0.0003266880     1    10     7     8
 -0.0027406407     1    10     7    12
 0.0034089351     1    10     8     3
 0.0002725924     1    10     8     7
 -0.0024090115     1    10     8     8
 0.0032279497     1    10     8    12
 -0.1223686239     1    10     9     1
 -0.0157709468     1    10     9     2
 0.0001682547     1    10     9     4
 0.0075660711     1    10     9     6
 -0.0116681368     1    10     9     9
 -0.0037162579     1    10     9    13
 -0.0099076926     1    10     9    16
 -0.7945986597     1    10    10     1
 -0.0266411333     1    10    10     2
 -0.0046855295     1    10    10     4
 0.0116913510     1    10    10     6
 -0.0090905038     1    10    10     9
 -0.0109575849     1    10    10    13
 -0.0223683622     1    10    10    16
 -0.0077267656     1    10    11     5
 -0.0093502081     1    10    11    11
 -0.0002349006     1    10    11    15
 0.0078410530     1    10    12     3
 -0.0037411000     1    10    12     7
 0.0029248925     1    10    12     8
 -0.0058318665     1    10    12    12
 0.0480810535     1    10    13     1
 0.0045421094     1    10    13     2
 -0.0091594368     1    10    13     4
 -0.0034146451     1    10    13     6
 0.0031515790     1    10    13     9
 -0.0013301980     1    10    13    13
 0.0031892571     1    10    13    16
 -0.0060670031     1    10    14    14
 -0.0047789843     1    10    15     5
 0.0018303018     1    10    15    11
 -0.0038573504     1    10    15    15
 0.0979150696     1    10    16     1
 0.0039384870     1    10    16     2
 0.0004380189     1    10    16     4
 -0.0018800689     1    10    16     6
 0.0030003383     1    10    16     9
 0.0017588815     1    10    16    13
 0.0009046788     1    10    16    16
 -0.0156359396     1    11     2     5
 -0.0013041887     1    11     2    15
 -0.0081527443     1    11     3    14
 -0.0042089217     1    11     4     5
 0.0081176618     1    11     4    15
 -0.4649956838     1    11     5     1
 -0.0481329439     1    11     5     2
 -0.0151554851     1    11     5     4
 0.0128518668     1    11     5     6
 -0.0156292387     1    11     5     9
 0.0098843396     1    11     5    10
 -0.0148867723     1    11     5    13
 -0.0156737388     1    11     5    16
 -0.0002311279     1    11     6     5
 0.0013568109     1    11     6    15
 0.0017530487     1    11     7    14
 -0.0010391154     1    11     8    14
 -0.0048528977     1    11     9     5
 0.0002973309     1    11     9    15
 0.0025566559     1    11    10     5
 -0.0020528782     1    11    10    15
 -0.9483800756     1    11    11     1
 -0.0403961057     1    11    11     2
 -0.0135704710     1    11    11     4
 0.0158619536     1    11    11     6
 -0.0134523506     1    11    11     9
 0.0093502081     1    11    11    10
 -0.0175191451     1    11    11    13
 -0.0326179386     1    11    11    16
 0.0010868233     1    11    12    14
 -0.0006130170     1    11    13     5
 -0.0009811842     1    11    13    15
 -0.0082595172     1    11    14     3
 0.0017080501     1    11    14     7
 -0.0009157409     1    11    14     8
 0.0009148926     1    11    14    12
 0.0306120588     1    11    15     1
 0.0003827998     1    11    15     2
 0.0083615325     1    11    15     4
 0.0005339895     1    11    15     6
 0.0011697410     1    11    15     9
 -0.0018303018     1    11    15    10
 -0.0003621212     1    11    15    13
 -0.0000510191     1    11    15    16
 0.0113433698     1    11    16     5
 -0.0012174838     1    11    16    15
 0.0123501509     1    12     2     3
 -0.0033103219     1    12     2     7
 0.0012700095     1    12     2     8
 0.3099622414     1    12     3     1
 0.0333742138     1    12     3     2
 0.0094274878     1    12     3     4
 -0.0065429952     1    12     3     6
 0.0006359282     1    12     3     9
 -0.0035323347     1    12     3    10
 0.0131659493     1    12     3    13
 0.0177952446     1    12     3    16
 0.0021779598     1    12     4     3
 -0.0031979469     1    12     4     7
 0.0080197919     1    12     4     8
 0.0068458748     1    12     5    14
 0.0017521159     1    12     6     3
 0.0016536937     1    12     6     7
 0.0013253332     1    12     6     8
 -0.2065731526     1    12     7     1
 -0.0153178670     1    12     7     2
 -0.0067817506     1    12     7     4
 0.0063898010     1    12     7     6
 -0.0030901318     1    12     7     9
 0.0027406407     1    12     7    10
 -0.0062964961     1    12     7    13
 -0.0096710821     1    12     7    16
 0.1089694446     1    12     8     1
 0.0127008979     1    12     8     2
 0.0109073743     1    12     8     4
 -0.0034107791     1    12     8     6
 0.0061300421     1    12     8     9
 -0.0032279497     1    12     8    10
 0.0074748103     1    12     8    13
 0.0074302267     1    12     8    16
 -0.0054383914     1    12     9     3
 0.0005092600     1    12     9     7
 0.0023905801     1    12     9     8
 0.0041855684     1    12    10     3
 -0.0009950769     1    12    10     7
 -0.0003136859     1    12    10     8
 0.0001981998     1    12    11    14
 -0.7471524215     1    12    12     1
 -0.0253465025     1    12    12     2
 -0.0056249238     1    12    12     4
 0.0103835280     1    12    12     6
 -0.0085398315     1    12    12     9
 0.0058318665     1    12    12    10
 -0.0105467752     1    12    12    13
 -0.0226405105     1    12    12    16
 0.0037405381     1    12    13     3
 -0.0011540345     1    12    13     7
 0.0026044684     1    12    13     8
 0.0059996305     1    12    14     5
 -0.0009148926     1    12    14    11
 0.0065772793     1    12    14    15
 0.0065399260     1    12    15    14
 -0.0024369077     1    12    16     3