&FCI NORB=  8,NELEC=  6,MS2=0,
 ORBSYM=1,1,1,1,1,1,1,1
 ISYM=1,
&END
 0.2006341676     1     1     2     2
 0.0254667297     1     1     2     4
 -0.0013363554     1     1     2     6
 0.0077917699     1     1     2     8
 0.2428431285     1     1     3     3
 -0.0369106835     1     1     3     5
 -0.0094777847     1     1     3     7
 0.0254667297     1     1     4     2
 0.2431356853     1     1     4     4
 0.0527120581     1     1     4     6
 0.0323439725     1     1     4     8
 -0.0369106835     1     1     5     3
 0.1860803384     1     1     5     5
 -0.0019566884     1     1     5     7
 -0.0013363554     1     1     6     2
 0.0527120581     1     1     6     4
 0.1880485122     1     1     6     6
 -0.0089966248     1     1     6     8
 -0.0094777847     1     1     7     3
 -0.0019566884     1     1     7     5
 0.2381548533     1     1     7     7
 0.0077917699     1     1     8     2
 0.0323439725     1     1     8     4
 -0.0089966248     1     1     8     6
 0.1984973898     1     1     8     8
 -0.2006341676     1     2     2     1
 -0.0663951235     1     2     2     3
 0.0046351166     1     2     2     5
 0.0103437477     1     2     2     7
 0.0553162038     1     2     3     4
 0.0263399884     1     2     3     6
 0.0135588576     1     2     3     8
 -0.0254667297     1     2     4     1
 0.0198991090     1     2     4     3
 0.0451290711     1     2     4     5
 0.0134528127     1     2     4     7
 0.0330051577     1     2     5     4
 -0.0350976675     1     2     5     6
 -0.0072248103     1     2     5     8
 0.0013363554     1     2     6     1
 0.0171407769     1     2     6     3
 -0.0288587279     1     2     6     5
 0.0169152660     1     2     6     7
 0.0074628411     1     2     7     4
 0.0155717070     1     2     7     6
 -0.0365786618     1     2     7     8
 -0.0077917699     1     2     8     1
 0.0011954251     1     2     8     3
 -0.0027505110     1     2     8     5
 -0.0337119382     1     2     8     7
 -0.0000000001     1     2     8     8
 0.0663951235     1     3     2     2
 0.0362828005     1     3     2     4
 0.0094367315     1     3     2     6
 0.0124347045     1     3     2     8
 -0.2428431285     1     3     3     1
 -0.0263717346     1     3     3     5
 0.0065960101     1     3     3     7
 -0.0198991090     1     3     4     2
 0.0059160360     1     3     4     4
 0.0177585298     1     3     4     6
 0.0089188193     1     3     4     8
 0.0369106835     1     3     5     1
 -0.0044950006     1     3     5     5
 -0.0064175152     1     3     5     7
 0.0000000001     1     3     5     8
 -0.0171407769     1     3     6     2
 0.0058529761     1     3     6     4
 -0.0020225300     1     3     6     6
 -0.0047303974     1     3     6     8
 0.0094777847     1     3     7     1
 -0.0023281300     1     3     7     5
 0.0251722970     1     3     7     7
 -0.0011954251     1     3     8     2
 0.0095242090     1     3     8     4
 0.0000000001     1     3     8     5
 -0.0009131762     1     3     8     6
 -0.0000000001     1     3     8     7
 0.0052655849     1     3     8     8
 -0.0254667297     1     4     2     1
 -0.0362828005     1     4     2     3
 0.0129117123     1     4     2     5
 0.0062704469     1     4     2     7
 -0.0553162038     1     4     3     2
 0.0119937679     1     4     3     6
 -0.0009386200     1     4     3     8
 -0.2431356853     1     4     4     1
 -0.0059160360     1     4     4     3
 -0.0051303742     1     4     4     5
 0.0146774568     1     4     4     7
 -0.0330051577     1     4     5     2
 0.0029546608     1     4     5     6
 0.0005666518     1     4     5     8
 -0.0527120581     1     4     6     1
 -0.0058529761     1     4     6     3
 -0.0031173480     1     4     6     5
 0.0000000001     1     4     6     6
 0.0100570353     1     4     6     7
 0.0000000003     1     4     6     8
 -0.0074628411     1     4     7     2
 0.0052575133     1     4     7     6
 -0.0000000001     1     4     7     7
 -0.0090609231     1     4     7     8
 -0.0323439725     1     4     8     1
 -0.0095242090     1     4     8     3
 0.0026431445     1     4     8     5
 0.0000000001     1     4     8     6
 -0.0042641762     1     4     8     7
 -0.0046351166     1     5     2     2
 -0.0129117123     1     5     2     4
 -0.0070934281     1     5     2     6
 -0.0050200890     1     5     2     8
 0.0369106835     1     5     3     1
 0.0263717346     1     5     3     3
 -0.0043013016     1     5     3     7
 0.0000000001     1     5     3     8
 -0.0451290711     1     5     4     2
 0.0051303742     1     5     4     4
 0.0060932885     1     5     4     6
 -0.0019969292     1     5     4     8
 -0.1860803384     1     5     5     1
 0.0044950006     1     5     5     3
 0.0077577634     1     5     5     7
 -0.0000000001     1     5     5     8
 0.0288587279     1     5     6     2
 0.0031173480     1     5     6     4
 0.0025913769     1     5     6     6
 -0.0000928613     1     5     6     8
 0.0019566884     1     5     7     1
 0.0023281300     1     5     7     3
 0.0000000001     1     5     7     6
 0.0044068700     1     5     7     7
 -0.0000000002     1     5     7     8
 0.0027505110     1     5     8     2
 -0.0000000001     1     5     8     3
 -0.0026431445     1     5     8     4
 -0.0030175394     1     5     8     6
 0.0036928860     1     5     8     8
 0.0013363554     1     6     2     1
 -0.0094367315     1     6     2     3
 0.0070934281     1     6     2     5
 0.0015373369     1     6     2     7
 -0.0263399884     1     6     3     2
 -0.0119937679     1     6     3     4
 -0.0040548834     1     6     3     8
 -0.0527120581     1     6     4     1
 -0.0177585298     1     6     4     3
 -0.0060932885     1     6     4     5
 0.0047697934     1     6     4     7
 0.0000000002     1     6     4     8
 0.0350976675     1     6     5     2
 -0.0029546608     1     6     5     4
 -0.0000000001     1     6     5     7
 0.0028676079     1     6     5     8
 -0.1880485122     1     6     6     1
 0.0020225300     1     6     6     3
 -0.0000000001     1     6     6     4
 -0.0025913769     1     6     6     5
 0.0072726847     1     6     6     7
 -0.0000000012     1     6     6     8
 -0.0155717070     1     6     7     2
 -0.0052575133     1     6     7     4
 -0.0000000001     1     6     7     5
 -0.0022581457     1     6     7     8
 0.0089966248     1     6     8     1
 0.0009131762     1     6     8     3
 -0.0000000001     1     6     8     4
 0.0030175394     1     6     8     5
 0.0013339568     1     6     8     7
 -0.0000000010     1     6     8     8
 -0.0103437477     1     7     2     2
 -0.0062704469     1     7     2     4
 -0.0015373369     1     7     2     6
 -0.0031690902     1     7     2     8
 0.0094777847     1     7     3     1
 -0.0065960101     1     7     3     3
 0.0043013016     1     7     3     5
 0.0000000001     1     7     3     8
 -0.0134528127     1     7     4     2
 -0.0146774568     1     7     4     4
 -0.0047697934     1     7     4     6
 -0.0047017781     1     7     4     8
 0.0019566884     1     7     5     1
 0.0064175152     1     7     5     3
 -0.0077577634     1     7     5     5
 0.0000000001     1     7     5     6
 -0.0000000001     1     7     5     8
 -0.0169152660     1     7     6     2
 -0.0100570353     1     7     6     4
 -0.0072726847     1     7     6     6
 -0.0035391524     1     7     6     8
 -0.2381548533     1     7     7     1
 -0.0251722970     1     7     7     3
 0.0000000001     1     7     7     4
 -0.0044068700     1     7     7     5
 -0.0000000001     1     7     7     8
 0.0337119382     1     7     8     2
 0.0000000001     1     7     8     3
 0.0042641762     1     7     8     4
 -0.0013339568     1     7     8     6
 -0.0019671010     1     7     8     8
 -0.0077917699     1     8     2     1
 -0.0124347045     1     8     2     3
 0.0050200890     1     8     2     5
 0.0031690902     1     8     2     7
 -0.0135588576     1     8     3     2
 0.0009386200     1     8     3     4
 -0.0000000001     1     8     3     5
 0.0040548834     1     8     3     6
 -0.0000000001     1     8     3     7
 -0.0323439725     1     8     4     1
 -0.0089188193     1     8     4     3
 0.0019969292     1     8     4     5
 -0.0000000002     1     8     4     6
 0.0047017781     1     8     4     7
 0.0072248103     1     8     5     2
 -0.0000000001     1     8     5     3
 -0.0005666518     1     8     5     4
 0.0000000001     1     8     5     5
 -0.0028676079     1     8     5     6
 0.0000000001     1     8     5     7
 0.0089966248     1     8     6     1
 0.0047303974     1     8     6     3
 -0.0000000003     1     8     6     4
 0.0000928613     1     8     6     5
 0.0000000012     1     8     6     6
 0.0035391524     1     8     6     7
 0.0365786618     1     8     7     2
 0.0090609231     1     8     7     4
 0.0000000002     1     8     7     5
 0.0022581457     1     8     7     6
 0.0000000001     1     8     7     7
 -0.1984973898     1     8     8     1
 0.0000000001     1     8     8     2
 -0.0052655849     1     8     8     3
 -0.0036928860     1     8     8     5
 0.0000000010     1     8     8     6
 0.0019671010     1     8     8     7
 -0.2006341676     2     1     1     2
 -0.0254667297     2     1     1     4
 0.0013363554     2     1     1     6
 -0.0077917699     2     1     1     8
 -0.0663951235     2     1     3     2
 0.0198991090     2     1     3     4
 0.0171407769     2     1     3     6
 0.0011954251     2     1     3     8
 0.0553162038     2     1     4     3
 0.0330051577     2     1     4     5
 0.0074628411     2     1     4     7
 0.0046351166     2     1     5     2
 0.0451290711     2     1     5     4
 -0.0288587279     2     1     5     6
 -0.0027505110     2     1     5     8
 0.0263399884     2     1     6     3
 -0.0350976675     2     1     6     5
 0.0155717070     2     1     6     7
 0.0103437477     2     1     7     2
 0.0134528127     2     1     7     4
 0.0169152660     2     1     7     6
 -0.0337119382     2     1     7     8
 0.0135588576     2     1     8     3
 -0.0072248103     2     1     8     5
 -0.0365786618     2     1     8     7
 -0.0000000001     2     1     8     8
 0.2006341676     2     2     1     1
 0.0663951235     2     2     1     3
 -0.0046351166     2     2     1     5
 -0.0103437477     2     2     1     7
 0.0663951235     2     2     3     1
 0.2022939825     2     2     3     3
 -0.0132695667     2     2     3     5
 -0.0101781336     2     2     3     7
 0.2255142671     2     2     4     4
 0.0349868891     2     2     4     6
 0.0194734970     2     2     4     8
 -0.0046351166     2     2     5     1
 -0.0132695667     2     2     5     3
 0.1888651080     2     2     5     5
 0.0008463046     2     2     5     7
 0.0349868891     2     2     6     4
 0.1880189945     2     2     6     6
 -0.0069072532     2     2     6     8
 -0.0103437477     2     2     7     1
 -0.0101781336     2     2     7     3
 0.0008463046     2     2     7     5
 0.2108070449     2     2     7     7
 0.0194734970     2     2     8     4
 -0.0069072532     2     2     8     6
 0.1917019307     2     2     8     8
 -0.0663951235     2     3     1     2
 -0.0362828005     2     3     1     4
 -0.0094367315     2     3     1     6
 -0.0124347045     2     3     1     8
 -0.2022939825     2     3     3     2
 -0.0718300649     2     3     3     4
 -0.0166540167     2     3     3     6
 -0.0184533252     2     3     3     8
 -0.0553162038     2     3     4     1
 -0.0555115929     2     3     4     5
 -0.0065954845     2     3     4     7
 0.0132695667     2     3     5     2
 -0.0297138445     2     3     5     4
 0.0413366485     2     3     5     6
 0.0123866427     2     3     5     8
 -0.0263399884     2     3     6     1
 0.0281989400     2     3     6     5
 -0.0119642615     2     3     6     7
 -0.0000000001     2     3     6     8
 0.0101781336     2     3     7     2
 -0.0009935507     2     3     7     4
 -0.0106504872     2     3     7     6
 0.0342843135     2     3     7     8
 -0.0135588576     2     3     8     1
 0.0043177651     2     3     8     5
 0.0314557589     2     3     8     7
 0.0000000002     2     3     8     8
 0.0254667297     2     4     1     1
 0.0362828005     2     4     1     3
 -0.0129117123     2     4     1     5
 -0.0062704469     2     4     1     7
 -0.0198991090     2     4     3     1
 0.0718300649     2     4     3     3
 -0.0273126954     2     4     3     5
 -0.0054648840     2     4     3     7
 -0.2255142671     2     4     4     2
 0.0274380795     2     4     4     6
 0.0009749135     2     4     4     8
 -0.0451290711     2     4     5     1
 0.0297138445     2     4     5     3
 -0.0051890158     2     4     5     5
 0.0020255302     2     4     5     7
 -0.0349868891     2     4     6     2
 0.0012948935     2     4     6     6
 0.0000000001     2     4     6     7
 -0.0092695455     2     4     6     8
 -0.0134528127     2     4     7     1
 0.0009935507     2     4     7     3
 -0.0012874915     2     4     7     5
 0.0283458504     2     4     7     7
 0.0000000001     2     4     7     8
 -0.0194734970     2     4     8     2
 0.0000000001     2     4     8     5
 -0.0051994235     2     4     8     6
 0.0000000001     2     4     8     7
 0.0067384153     2     4     8     8
 0.0046351166     2     5     1     2
 0.0129117123     2     5     1     4
 0.0070934281     2     5     1     6
 0.0050200890     2     5     1     8
 0.0132695667     2     5     3     2
 0.0273126954     2     5     3     4
 0.0141975161     2     5     3     6
 0.0085122195     2     5     3     8
 -0.0330051577     2     5     4     1
 0.0555115929     2     5     4     3
 0.0034494635     2     5     4     7
 -0.1888651080     2     5     5     2
 0.0051890158     2     5     5     4
 0.0113008464     2     5     5     6
 -0.0014012072     2     5     5     8
 0.0350976675     2     5     6     1
 -0.0281989400     2     5     6     3
 0.0000000001     2     5     6     6
 0.0006692274     2     5     6     7
 0.0000000001     2     5     6     8
 -0.0008463046     2     5     7     2
 0.0012874915     2     5     7     4
 0.0039393209     2     5     7     6
 -0.0000000001     2     5     7     7
 -0.0072692019     2     5     7     8
 0.0072248103     2     5     8     1
 -0.0043177651     2     5     8     3
 -0.0000000001     2     5     8     4
 -0.0074956120     2     5     8     7
 0.0000000001     2     5     8     8
 -0.0013363554     2     6     1     1
 0.0094367315     2     6     1     3
 -0.0070934281     2     6     1     5
 -0.0015373369     2     6     1     7
 -0.0171407769     2     6     3     1
 0.0166540167     2     6     3     3
 -0.0141975161     2     6     3     5
 -0.0013200513     2     6     3     7
 -0.0000000001     2     6     3     8
 -0.0349868891     2     6     4     2
 -0.0274380795     2     6     4     4
 0.0000000001     2     6     4     7
 -0.0040264723     2     6     4     8
 0.0288587279     2     6     5     1
 -0.0413366485     2     6     5     3
 -0.0113008464     2     6     5     5
 -0.0033935696     2     6     5     7
 0.0000000001     2     6     5     8
 -0.1880189945     2     6     6     2
 -0.0012948935     2     6     6     4
 -0.0000000001     2     6     6     5
 -0.0000000004     2     6     6     7
 -0.0054678494     2     6     6     8
 -0.0169152660     2     6     7     1
 0.0106504872     2     6     7     3
 -0.0039393209     2     6     7     5
 0.0014958691     2     6     7     7
 -0.0000000001     2     6     7     8
 0.0069072532     2     6     8     2
 0.0051994235     2     6     8     4
 -0.0000000003     2     6     8     7
 -0.0054335967     2     6     8     8
 0.0103437477     2     7     1     2
 0.0062704469     2     7     1     4
 0.0015373369     2     7     1     6
 0.0031690902     2     7     1     8
 0.0101781336     2     7     3     2
 0.0054648840     2     7     3     4
 0.0013200513     2     7     3     6
 0.0029481529     2     7     3     8
 -0.0074628411     2     7     4     1
 0.0065954845     2     7     4     3
 -0.0034494635     2     7     4     5
 -0.0000000001     2     7     4     6
 0.0000000001     2     7     4     8
 -0.0008463046     2     7     5     2
 -0.0020255302     2     7     5     4
 0.0033935696     2     7     5     6
 0.0002760108     2     7     5     8
 -0.0155717070     2     7     6     1
 0.0119642615     2     7     6     3
 -0.0000000001     2     7     6     4
 -0.0006692274     2     7     6     5
 0.0000000004     2     7     6     6
 0.0000000002     2     7     6     8
 -0.2108070449     2     7     7     2
 -0.0283458504     2     7     7     4
 0.0000000001     2     7     7     5
 -0.0014958691     2     7     7     6
 -0.0063274228     2     7     7     8
 0.0365786618     2     7     8     1
 -0.0314557589     2     7     8     3
 -0.0000000001     2     7     8     4
 0.0074956120     2     7     8     5
 0.0000000003     2     7     8     6
 0.0000000006     2     7     8     8
 0.0077917699     2     8     1     1
 0.0124347045     2     8     1     3
 -0.0050200890     2     8     1     5
 -0.0031690902     2     8     1     7
 -0.0011954251     2     8     3     1
 0.0184533252     2     8     3     3
 -0.0085122195     2     8     3     5
 0.0000000001     2     8     3     6
 -0.0029481529     2     8     3     7
 -0.0194734970     2     8     4     2
 -0.0009749135     2     8     4     4
 0.0040264723     2     8     4     6
 -0.0000000001     2     8     4     7
 0.0027505110     2     8     5     1
 -0.0123866427     2     8     5     3
 0.0014012072     2     8     5     5
 -0.0000000001     2     8     5     6
 -0.0002760108     2     8     5     7
 0.0069072532     2     8     6     2
 0.0000000001     2     8     6     3
 0.0092695455     2     8     6     4
 -0.0000000001     2     8     6     5
 0.0054678494     2     8     6     6
 -0.0000000002     2     8     6     7
 0.0337119382     2     8     7     1
 -0.0342843135     2     8     7     3
 -0.0000000001     2     8     7     4
 0.0072692019     2     8     7     5
 0.0000000001     2     8     7     6
 0.0063274228     2     8     7     7
 0.0000000001     2     8     8     1
 -0.1917019307     2     8     8     2
 -0.0000000002     2     8     8     3
 -0.0067384153     2     8     8     4
 -0.0000000001     2     8     8     5
 0.0054335967     2     8     8     6
 -0.0000000006     2     8     8     7
 -0.2428431285     3     1     1     3
 0.0369106835     3     1     1     5
 0.0094777847     3     1     1     7
 0.0663951235     3     1     2     2
 -0.0198991090     3     1     2     4
 -0.0171407769     3     1     2     6
 -0.0011954251     3     1     2     8
 0.0362828005     3     1     4     2
 0.0059160360     3     1     4     4
 0.0058529761     3     1     4     6
 0.0095242090     3     1     4     8
 -0.0263717346     3     1     5     3
 -0.0044950006     3     1     5     5
 -0.0023281300     3     1     5     7
 0.0000000001     3     1     5     8
 0.0094367315     3     1     6     2
 0.0177585298     3     1     6     4
 -0.0020225300     3     1     6     6
 -0.0009131762     3     1     6     8
 0.0065960101     3     1     7     3
 -0.0064175152     3     1     7     5
 0.0251722970     3     1     7     7
 -0.0000000001     3     1     7     8
 0.0124347045     3     1     8     2
 0.0089188193     3     1     8     4
 0.0000000001     3     1     8     5
 -0.0047303974     3     1     8     6
 0.0052655849     3     1     8     8
 -0.0553162038     3     2     1     4
 -0.0263399884     3     2     1     6
 -0.0135588576     3     2     1     8
 -0.0663951235     3     2     2     1
 -0.2022939825     3     2     2     3
 0.0132695667     3     2     2     5
 0.0101781336     3     2     2     7
 -0.0362828005     3     2     4     1
 -0.0718300649     3     2     4     3
 -0.0297138445     3     2     4     5
 -0.0009935507     3     2     4     7
 -0.0555115929     3     2     5     4
 0.0281989400     3     2     5     6
 0.0043177651     3     2     5     8
 -0.0094367315     3     2     6     1
 -0.0166540167     3     2     6     3
 0.0413366485     3     2     6     5
 -0.0106504872     3     2     6     7
 -0.0065954845     3     2     7     4
 -0.0119642615     3     2     7     6
 0.0314557589     3     2     7     8
 -0.0124347045     3     2     8     1
 -0.0184533252     3     2     8     3
 0.0123866427     3     2     8     5
 -0.0000000001     3     2     8     6
 0.0342843135     3     2     8     7
 0.0000000002     3     2     8     8
 0.2428431285     3     3     1     1
 0.0263717346     3     3     1     5
 -0.0065960101     3     3     1     7
 0.2022939825     3     3     2     2
 0.0718300649     3     3     2     4
 0.0166540167     3     3     2     6
 0.0184533252     3     3     2     8
 0.0718300649     3     3     4     2
 0.2178424460     3     3     4     4
 0.0260528732     3     3     4     6
 0.0240828699     3     3     4     8
 0.0263717346     3     3     5     1
 0.1838892412     3     3     5     5
 -0.0051370323     3     3     5     7
 0.0166540167     3     3     6     2
 0.0260528732     3     3     6     4
 0.1807647903     3     3     6     6
 -0.0057490378     3     3     6     8
 -0.0065960101     3     3     7     1
 -0.0051370323     3     3     7     5
 0.2116217252     3     3     7     7
 0.0184533252     3     3     8     2
 0.0240828699     3     3     8     4
 -0.0057490378     3     3     8     6
 0.1918021375     3     3     8     8
 0.0553162038     3     4     1     2
 -0.0119937679     3     4     1     6
 0.0009386200     3     4     1     8
 0.0198991090     3     4     2     1
 -0.0718300649     3     4     2     3
 0.0273126954     3     4     2     5
 0.0054648840     3     4     2     7
 -0.0059160360     3     4     4     1
 -0.2178424460     3     4     4     3
 0.0609128158     3     4     4     5
 0.0000000001     3     4     4     6
 0.0144039557     3     4     4     7
 -0.0000000001     3     4     4     8
 0.0555115929     3     4     5     2
 -0.0489133199     3     4     5     6
 -0.0105941551     3     4     5     8
 -0.0177585298     3     4     6     1
 -0.0260528732     3     4     6     3
 -0.0161619679     3     4     6     5
 -0.0000000004     3     4     6     6
 0.0153971547     3     4     6     7
 0.0000000005     3     4     6     8
 0.0065954845     3     4     7     2
 0.0069771286     3     4     7     6
 -0.0238843193     3     4     7     8
 -0.0089188193     3     4     8     1
 -0.0240828699     3     4     8     3
 0.0038500033     3     4     8     5
 0.0000000002     3     4     8     6
 -0.0183032393     3     4     8     7
 -0.0000000003     3     4     8     8
 -0.0369106835     3     5     1     1
 -0.0263717346     3     5     1     3
 0.0043013016     3     5     1     7
 -0.0000000001     3     5     1     8
 -0.0132695667     3     5     2     2
 -0.0273126954     3     5     2     4
 -0.0141975161     3     5     2     6
 -0.0085122195     3     5     2     8
 0.0297138445     3     5     4     2
 -0.0609128158     3     5     4     4
 -0.0329704136     3     5     4     6
 -0.0143979092     3     5     4     8
 0.0044950006     3     5     5     1
 -0.1838892412     3     5     5     3
 0.0000000002     3     5     5     6
 0.0011260435     3     5     5     7
 -0.0000000003     3     5     5     8
 -0.0413366485     3     5     6     2
 0.0161619679     3     5     6     4
 0.0048735934     3     5     6     6
 0.0000000001     3     5     6     7
 0.0050281336     3     5     6     8
 0.0064175152     3     5     7     1
 0.0051370323     3     5     7     3
 0.0000000003     3     5     7     6
 -0.0249985758     3     5     7     7
 -0.0000000005     3     5     7     8
 -0.0000000001     3     5     8     1
 -0.0123866427     3     5     8     2
 -0.0038500033     3     5     8     4
 0.0031706090     3     5     8     6
 -0.0131291480     3     5     8     8
 0.0263399884     3     6     1     2
 0.0119937679     3     6     1     4
 0.0040548834     3     6     1     8
 0.0171407769     3     6     2     1
 -0.0166540167     3     6     2     3
 0.0141975161     3     6     2     5
 0.0013200513     3     6     2     7
 0.0000000001     3     6     2     8
 -0.0058529761     3     6     4     1
 -0.0260528732     3     6     4     3
 -0.0000000001     3     6     4     4
 0.0329704136     3     6     4     5
 0.0085303192     3     6     4     7
 0.0000000003     3     6     4     8
 -0.0281989400     3     6     5     2
 0.0489133199     3     6     5     4
 -0.0000000002     3     6     5     5
 -0.0000000002     3     6     5     7
 0.0017500322     3     6     5     8
 0.0020225300     3     6     6     1
 -0.1807647903     3     6     6     3
 0.0000000004     3     6     6     4
 -0.0048735934     3     6     6     5
 0.0060597855     3     6     6     7
 -0.0000000041     3     6     6     8
 0.0119642615     3     6     7     2
 -0.0069771286     3     6     7     4
 -0.0000000003     3     6     7     5
 -0.0000000005     3     6     7     7
 -0.0142750690     3     6     7     8
 0.0047303974     3     6     8     1
 0.0000000001     3     6     8     2
 0.0057490378     3     6     8     3
 -0.0000000002     3     6     8     4
 -0.0031706090     3     6     8     5
 -0.0122966322     3     6     8     7
 -0.0000000039     3     6     8     8
 -0.0094777847     3     7     1     1
 0.0065960101     3     7     1     3
 -0.0043013016     3     7     1     5
 -0.0000000001     3     7     1     8
 -0.0101781336     3     7     2     2
 -0.0054648840     3     7     2     4
 -0.0013200513     3     7     2     6
 -0.0029481529     3     7     2     8
 0.0009935507     3     7     4     2
 -0.0144039557     3     7     4     4
 -0.0085303192     3     7     4     6
 -0.0056296256     3     7     4     8
 0.0023281300     3     7     5     1
 0.0051370323     3     7     5     3
 -0.0011260435     3     7     5     5
 0.0000000002     3     7     5     6
 -0.0000000005     3     7     5     8
 0.0106504872     3     7     6     2
 -0.0153971547     3     7     6     4
 -0.0000000001     3     7     6     5
 -0.0060597855     3     7     6     6
 -0.0019464654     3     7     6     8
 -0.0251722970     3     7     7     1
 -0.2116217252     3     7     7     3
 0.0249985758     3     7     7     5
 0.0000000005     3     7     7     6
 -0.0000000007     3     7     7     8
 -0.0342843135     3     7     8     2
 0.0183032393     3     7     8     4
 0.0122966322     3     7     8     6
 0.0009055529     3     7     8     8
 0.0135588576     3     8     1     2
 -0.0009386200     3     8     1     4
 0.0000000001     3     8     1     5
 -0.0040548834     3     8     1     6
 0.0000000001     3     8     1     7
 0.0011954251     3     8     2     1
 -0.0184533252     3     8     2     3
 0.0085122195     3     8     2     5
 -0.0000000001     3     8     2     6
 0.0029481529     3     8     2     7
 -0.0095242090     3     8     4     1
 -0.0240828699     3     8     4     3
 0.0000000001     3     8     4     4
 0.0143979092     3     8     4     5
 -0.0000000003     3     8     4     6
 0.0056296256     3     8     4     7
 -0.0000000001     3     8     5     1
 -0.0043177651     3     8     5     2
 0.0105941551     3     8     5     4
 0.0000000003     3     8     5     5
 -0.0017500322     3     8     5     6
 0.0000000005     3     8     5     7
 0.0009131762     3     8     6     1
 0.0057490378     3     8     6     3
 -0.0000000005     3     8     6     4
 -0.0050281336     3     8     6     5
 0.0000000041     3     8     6     6
 0.0019464654     3     8     6     7
 0.0000000001     3     8     7     1
 -0.0314557589     3     8     7     2
 0.0238843193     3     8     7     4
 0.0000000005     3     8     7     5
 0.0142750690     3     8     7     6
 0.0000000007     3     8     7     7
 -0.0052655849     3     8     8     1
 -0.0000000002     3     8     8     2
 -0.1918021375     3     8     8     3
 0.0000000003     3     8     8     4
 0.0131291480     3     8     8     5
 0.0000000039     3     8     8     6
 -0.0009055529     3     8     8     7
 -0.0254667297     4     1     1     2
 -0.2431356853     4     1     1     4
 -0.0527120581     4     1     1     6
 -0.0323439725     4     1     1     8
 -0.0553162038     4     1     2     3
 -0.0330051577     4     1     2     5
 -0.0074628411     4     1     2     7
 -0.0362828005     4     1     3     2
 -0.0059160360     4     1     3     4
 -0.0058529761     4     1     3     6
 -0.0095242090     4     1     3     8
 0.0129117123     4     1     5     2
 -0.0051303742     4     1     5     4
 -0.0031173480     4     1     5     6
 0.0026431445     4     1     5     8
 0.0119937679     4     1     6     3
 0.0029546608     4     1     6     5
 0.0000000001     4     1     6     6
 0.0052575133     4     1     6     7
 0.0000000001     4     1     6     8
 0.0062704469     4     1     7     2
 0.0146774568     4     1     7     4
 0.0100570353     4     1     7     6
 -0.0000000001     4     1     7     7
 -0.0042641762     4     1     7     8
 -0.0009386200     4     1     8     3
 0.0005666518     4     1     8     5
 0.0000000003     4     1     8     6
 -0.0090609231     4     1     8     7
 0.0254667297     4     2     1     1
 -0.0198991090     4     2     1     3
 -0.0451290711     4     2     1     5
 -0.0134528127     4     2     1     7
 -0.2255142671     4     2     2     4
 -0.0349868891     4     2     2     6
 -0.0194734970     4     2     2     8
 0.0362828005     4     2     3     1
 0.0718300649     4     2     3     3
 0.0297138445     4     2     3     5
 0.0009935507     4     2     3     7
 -0.0129117123     4     2     5     1
 -0.0273126954     4     2     5     3
 -0.0051890158     4     2     5     5
 -0.0012874915     4     2     5     7
 0.0000000001     4     2     5     8
 0.0274380795     4     2     6     4
 0.0012948935     4     2     6     6