&FCI NORB= 16,NELEC= 10,MS2=0,
 ORBSYM=1,1,1,1,1,1,1,1,1,1,1,1,1,1,1,1
 ISYM=1,
&END
 0.9963583355     1     1     2     2
 -0.0401953183     1     1     2     3
 0.0679238633     1     1     2     4
 -0.1090334799     1     1     2     6
 0.0792401476     1     1     2     7
 0.0321385665     1     1     2     8
 0.0675432628     1     1     2     9
 0.0314651460     1     1     2    10
 -0.0586083445     1     1     2    12
 -0.0827615922     1     1     2    13
 0.0974986401     1     1     2    16
 -0.0401953183     1     1     3     2
 0.8753869925     1     1     3     3
 -0.0801196498     1     1     3     4
 0.0813568575     1     1     3     6
 0.1374173299     1     1     3     7
 -0.0409661569     1     1     3     8
 0.0024935773     1     1     3     9
 0.2012965703     1     1     3    10
 0.0387173636     1     1     3    12
 -0.1267810959     1     1     3    13
 -0.0267615465     1     1     3    16
 0.0679238633     1     1     4     2
 -0.0801196498     1     1     4     3
 0.8134082366     1     1     4     4
 0.2207323233     1     1     4     6
 0.0528801095     1     1     4     7
 -0.0920016330     1     1     4     8
 0.0460112830     1     1     4     9
 -0.1571880271     1     1     4    10
 0.0576958908     1     1     4    12
 -0.1525800143     1     1     4    13
 -0.0274371262     1     1     4    16
 1.0088040318     1     1     5     5
 -0.2287117087     1     1     5    11
 0.1927917823     1     1     5    14
 0.0543947286     1     1     5    15
 -0.1090334799     1     1     6     2
 0.0813568575     1     1     6     3
 0.2207323233     1     1     6     4
 0.4521704796     1     1     6     6
 0.0344867608     1     1     6     7
 -0.1420035848     1     1     6     8
 -0.0044611291     1     1     6     9
 -0.0532937978     1     1     6    10
 0.0831909709     1     1     6    12
 -0.0991640305     1     1     6    13
 -0.0816840676     1     1     6    16
 0.0792401476     1     1     7     2
 0.1374173299     1     1     7     3
 0.0528801095     1     1     7     4
 0.0344867608     1     1     7     6
 0.3127874079     1     1     7     7
 -0.0503550637     1     1     7     8
 0.0481735490     1     1     7     9
 0.0893272028     1     1     7    10
 0.0046354300     1     1     7    12
 -0.1293711675     1     1     7    13
 0.0159465134     1     1     7    16
 0.0321385665     1     1     8     2
 -0.0409661569     1     1     8     3
 -0.0920016330     1     1     8     4
 -0.1420035848     1     1     8     6
 -0.0503550637     1     1     8     7
 0.3142026396     1     1     8     8
 -0.0120281080     1     1     8     9
 0.0149738277     1     1     8    10
 -0.0184140190     1     1     8    12
 0.0430452107     1     1     8    13
 0.0276786946     1     1     8    16
 0.0675432628     1     1     9     2
 0.0024935773     1     1     9     3
 0.0460112830     1     1     9     4
 -0.0044611291     1     1     9     6
 0.0481735490     1     1     9     7
 -0.0120281080     1     1     9     8
 0.3605810050     1     1     9     9
 0.0189838955     1     1     9    10
 -0.0063458010     1     1     9    12
 -0.0484398145     1     1     9    13
 -0.0054253565     1     1     9    16
 0.0314651460     1     1    10     2
 0.2012965703     1     1    10     3
 -0.1571880271     1     1    10     4
 -0.0532937978     1     1    10     6
 0.0893272028     1     1    10     7
 0.0149738277     1     1    10     8
 0.0189838955     1     1    10     9
 0.4921798036     1     1    10    10
 -0.0243308715     1     1    10    12
 -0.0149886924     1     1    10    13
 0.0086335308     1     1    10    16
 -0.2287117087     1     1    11     5
 0.4318476911     1     1    11    11
 -0.1069924710     1     1    11    14
 -0.0389805099     1     1    11    15
 -0.0586083445     1     1    12     2
 0.0387173636     1     1    12     3
 0.0576958908     1     1    12     4
 0.0831909709     1     1    12     6
 0.0046354300     1     1    12     7
 -0.0184140190     1     1    12     8
 -0.0063458010     1     1    12     9
 -0.0243308715     1     1    12    10
 0.3594143850     1     1    12    12
 -0.0356621868     1     1    12    13
 -0.0523772350     1     1    12    16
 -0.0827615922     1     1    13     2
 -0.1267810959     1     1    13     3
 -0.1525800143     1     1    13     4
 -0.0991640305     1     1    13     6
 -0.1293711675     1     1    13     7
 0.0430452107     1     1    13     8
 -0.0484398145     1     1    13     9
 -0.0149886924     1     1    13    10
 -0.0356621868     1     1    13    12
 0.4728055085     1     1    13    13
 0.0135170917     1     1    13    16
 0.1927917823     1     1    14     5
 -0.1069924710     1     1    14    11
 0.4277479022     1     1    14    14
 0.0064893302     1     1    14    15
 0.0543947286     1     1    15     5
 -0.0389805099     1     1    15    11
 0.0064893302     1     1    15    14
 0.3500240231     1     1    15    15
 0.0974986401     1     1    16     2
 -0.0267615465     1     1    16     3
 -0.0274371262     1     1    16     4
 -0.0816840676     1     1    16     6
 0.0159465134     1     1    16     7
 0.0276786946     1     1    16     8
 -0.0054253565     1     1    16     9
 0.0086335308     1     1    16    10
 -0.0523772350     1     1    16    12
 0.0135170917     1     1    16    13
 0.3585852366     1     1    16    16
 -0.9963583355     1     2     2     1
 -0.0055783649     1     2     2     3
 0.0020343219     1     2     2     4
 -0.0001076780     1     2     2     6
 -0.0018669680     1     2     2     7
 0.0002391874     1     2     2     8
 -0.0002372722     1     2     2     9
 -0.0044267546     1     2     2    10
 -0.0001263264     1     2     2    12
 0.0019200027     1     2     2    13
 0.0000446324     1     2     2    16
 0.0401953183     1     2     3     1
 -0.0322914096     1     2     3     3
 0.0047757256     1     2     3     4
 -0.0042683971     1     2     3     6
 -0.0104666056     1     2     3     7
 0.0033415671     1     2     3     8
 -0.0025109198     1     2     3     9
 -0.0178632561     1     2     3    10
 -0.0021457732     1     2     3    12
 0.0122111952     1     2     3    13
 0.0017189169     1     2     3    16
 -0.0679238633     1     2     4     1
 0.0042072520     1     2     4     3
 -0.0291385771     1     2     4     4
 -0.0149814992     1     2     4     6
 -0.0026080921     1     2     4     7
 0.0078660109     1     2     4     8
 -0.0025991092     1     2     4     9
 0.0124279831     1     2     4    10
 -0.0062316636     1     2     4    12
 0.0115645196     1     2     4    13
 0.0043740557     1     2     4    16
 -0.0428549819     1     2     5     5
 0.0186617725     1     2     5    11
 -0.0168158520     1     2     5    14
 -0.0042065039     1     2     5    15
 0.1090334799     1     2     6     1
 -0.0028709831     1     2     6     3
 -0.0128321068     1     2     6     4
 -0.0097135916     1     2     6     6
 -0.0034751545     1     2     6     7
 0.0053088114     1     2     6     8
 -0.0017269446     1     2     6     9
 0.0037574739     1     2     6    10
 -0.0040205974     1     2     6    12
 0.0088174367     1     2     6    13
 0.0030857313     1     2     6    16
 -0.0792401476     1     2     7     1
 -0.0086531352     1     2     7     3
 -0.0018464757     1     2     7     4
 -0.0036043769     1     2     7     6
 -0.0037315341     1     2     7     7
 0.0022496759     1     2     7     8
 -0.0011514971     1     2     7     9
 -0.0042214534     1     2     7    10
 -0.0014829842     1     2     7    12
 0.0057713194     1     2     7    13
 0.0011495596     1     2     7    16
 -0.0321385665     1     2     8     1
 0.0023140673     1     2     8     3
 0.0063833391     1     2     8     4
 0.0050877711     1     2     8     6
 0.0020857698     1     2     8     7
 -0.0029463753     1     2     8     8
 0.0011013701     1     2     8     9
 -0.0014961891     1     2     8    10
 0.0021054896     1     2     8    12
 -0.0049070020     1     2     8    13
 -0.0017164620     1     2     8    16
 -0.0675432628     1     2     9     1
 -0.0019867119     1     2     9     3
 -0.0017625123     1     2     9     4
 -0.0014758943     1     2     9     6
 -0.0010663870     1     2     9     7
 0.0010097695     1     2     9     8
 -0.0005590654     1     2     9     9
 0.0000782576     1     2     9    10
 -0.0005156677     1     2     9    12
 0.0017452824     1     2     9    13
 0.0003337202     1     2     9    16
 -0.0314651460     1     2    10     1
 -0.0131688996     1     2    10     3
 0.0097489552     1     2    10     4
 0.0028638660     1     2    10     6
 -0.0035700356     1     2    10     7
 -0.0011771967     1     2    10     8
 0.0002709698     1     2    10     9
 -0.0120815292     1     2    10    10
 0.0007053432     1     2    10    12
 0.0013763939     1     2    10    13
 -0.0004543214     1     2    10    16
 0.0140594798     1     2    11     5
 -0.0078670089     1     2    11    11
 0.0067555020     1     2    11    14
 0.0018597991     1     2    11    15
 0.0586083445     1     2    12     1
 -0.0012735700     1     2    12     3
 -0.0044664999     1     2    12     4
 -0.0034101443     1     2    12     6
 -0.0012074910     1     2    12     7
 0.0018576793     1     2    12     8
 -0.0005021913     1     2    12     9
 0.0007918756     1     2    12    10
 -0.0014291425     1     2    12    12
 0.0030146605     1     2    12    13
 0.0008260061     1     2    12    16
 0.0827615922     1     2    13     1
 0.0091012135     1     2    13     3
 0.0081444841     1     2    13     4
 0.0079301118     1     2    13     6
 0.0052287124     1     2    13     7
 -0.0046170497     1     2    13     8
 0.0017417458     1     2    13     9
 0.0017726633     1     2    13    10
 0.0032321472     1     2    13    12
 -0.0096067537     1     2    13    13
 -0.0022951428     1     2    13    16
 -0.0121861023     1     2    14     5
 0.0064663652     1     2    14    11
 -0.0055817908     1     2    14    14
 -0.0018443857     1     2    14    15
 -0.0034231369     1     2    15     5
 0.0020093144     1     2    15    11
 -0.0020464181     1     2    15    14
 -0.0004379880     1     2    15    15
 -0.0974986401     1     2    16     1
 0.0004762305     1     2    16     3
 0.0032231147     1     2    16     4
 0.0025490943     1     2    16     6
 0.0007203474     1     2    16     7
 -0.0014653976     1     2    16     8
 0.0002852943     1     2    16     9
 -0.0009892769     1     2    16    10
 0.0007801486     1     2    16    12
 -0.0018639787     1     2    16    13
 -0.0007429937     1     2    16    16
 0.0401953183     1     3     2     1
 0.0055783649     1     3     2     2
 0.0005745917     1     3     2     4
 -0.0011981798     1     3     2     6
 -0.0011316945     1     3     2     7
 0.0008582149     1     3     2     8
 -0.0003861840     1     3     2     9
 -0.0036505204     1     3     2    10
 -0.0007440499     1     3     2    12
 0.0023638987     1     3     2    13
 0.0011925835     1     3     2    16
 -0.8753869925     1     3     3     1
 0.0322914096     1     3     3     2
 0.0044939802     1     3     3     4
 -0.0037358882     1     3     3     6
 0.0038628225     1     3     3     7
 0.0010772337     1     3     3     8
 0.0004032210     1     3     3     9
 0.0003213437     1     3     3    10
 -0.0022347722     1     3     3    12
 -0.0054510692     1     3     3    13
 0.0058421160     1     3     3    16
 0.0801196498     1     3     4     1
 -0.0042072520     1     3     4     2
 0.0058992519     1     3     4     4
 0.0055157516     1     3     4     6
 0.0009130767     1     3     4     7
 -0.0038371270     1     3     4     8
 0.0000517052     1     3     4     9
 -0.0020786428     1     3     4    10
 -0.0001889675     1     3     4    12
 -0.0024818766     1     3     4    13
 -0.0016662190     1     3     4    16
 0.0099350193     1     3     5     5
 -0.0049807643     1     3     5    11
 0.0016074272     1     3     5    14
 0.0033339312     1     3     5    15
 -0.0813568575     1     3     6     1
 0.0028709831     1     3     6     2
 0.0036256804     1     3     6     4
 0.0008827291     1     3     6     6
 0.0000300405     1     3     6     7
 -0.0010307238     1     3     6     8
 0.0007614433     1     3     6     9
 -0.0016880070     1     3     6    10
 -0.0005458191     1     3     6    12
 -0.0011313315     1     3     6    13
 0.0007786017     1     3     6    16
 -0.1374173299     1     3     7     1
 0.0086531352     1     3     7     2
 0.0021031024     1     3     7     4
 -0.0018768672     1     3     7     6
 0.0035893081     1     3     7     7
 0.0002710195     1     3     7     8
 0.0012223563     1     3     7     9
 0.0018925781     1     3     7    10
 -0.0005449487     1     3     7    12
 -0.0030613882     1     3     7    13
 0.0021945304     1     3     7    16
 0.0409661569     1     3     8     1
 -0.0023140673     1     3     8     2
 -0.0019802715     1     3     8     4
 -0.0001181917     1     3     8     6
 -0.0004184288     1     3     8     7
 -0.0006785684     1     3     8     8
 0.0001984303     1     3     8     9
 -0.0002211017     1     3     8    10
 0.0006591167     1     3     8    12
 0.0006254761     1     3     8    13
 -0.0014610900     1     3     8    16
 -0.0024935773     1     3     9     1
 0.0019867119     1     3     9     2
 0.0004250627     1     3     9     4
 0.0005461447     1     3     9     6
 0.0015209647     1     3     9     7
 0.0001454850     1     3     9     8
 0.0005446650     1     3     9     9
 0.0037648635     1     3     9    10
 0.0002399998     1     3     9    12
 -0.0034832658     1     3     9    13
 -0.0004878654     1     3     9    16
 -0.2012965703     1     3    10     1
 0.0131688996     1     3    10     2
 0.0002717896     1     3    10     4
 -0.0045846109     1     3    10     6
 0.0036424053     1     3    10     7
 0.0012678234     1     3    10     8
 0.0038098881     1     3    10     9
 0.0037284846     1     3    10    10
 -0.0032115384     1     3    10    12
 -0.0032440266     1     3    10    13
 0.0040085611     1     3    10    16
 -0.0031158730     1     3    11     5
 0.0004233875     1     3    11    11
 -0.0015512951     1     3    11    14
 -0.0006947195     1     3    11    15
 -0.0387173636     1     3    12     1
 0.0012735700     1     3    12     2
 0.0010929083     1     3    12     4
 0.0006811355     1     3    12     6
 0.0007998866     1     3    12     7
 -0.0003978935     1     3    12     8
 0.0005884891     1     3    12     9
 -0.0024378891     1     3    12    10
 0.0004794998     1     3    12    12
 -0.0017577940     1     3    12    13
 -0.0018529936     1     3    12    16
 0.1267810959     1     3    13     1
 -0.0091012135     1     3    13     2
 -0.0037436848     1     3    13     4
 0.0008164002     1     3    13     6
 -0.0029751390     1     3    13     7
 0.0002984665     1     3    13     8
 -0.0030843957     1     3    13     9
 -0.0008199574     1     3    13    10
 0.0003639485     1     3    13    12
 0.0048976808     1     3    13    13
 -0.0017606798     1     3    13    16
 0.0031565309     1     3    14     5
 -0.0030632146     1     3    14    11
 0.0036741348     1     3    14    14
 -0.0012737184     1     3    14    15
 0.0006120926     1     3    15     5
 0.0003691779     1     3    15    11
 -0.0025739671     1     3    15    14
 0.0009294043     1     3    15    15
 0.0267615465     1     3    16     1
 -0.0004762305     1     3    16     2
 -0.0011326888     1     3    16     4
 -0.0001619165     1     3    16     6
 -0.0000765028     1     3    16     7
 -0.0005153384     1     3    16     8
 -0.0009977513     1     3    16     9
 0.0007202045     1     3    16    10
 -0.0019205787     1     3    16    12
 0.0010449705     1     3    16    13
 0.0010189756     1     3    16    16
 -0.0679238633     1     4     2     1
 -0.0020343219     1     4     2     2
 -0.0005745917     1     4     2     3
 -0.0011186813     1     4     2     6
 -0.0006151481     1     4     2     7
 0.0009645428     1     4     2     8
 -0.0006682072     1     4     2     9
 0.0018959852     1     4     2    10
 -0.0013909550     1     4     2    12
 0.0027515814     1     4     2    13
 0.0008802155     1     4     2    16
 0.0801196498     1     4     3     1
 -0.0047757256     1     4     3     2
 -0.0044939802     1     4     3     3
 0.0016661061     1     4     3     6
 -0.0013161553     1     4     3     7
 -0.0017363344     1     4     3     8
 -0.0003184879     1     4     3     9
 -0.0023535434     1     4     3    10
 -0.0013405631     1     4     3    12
 0.0015426538     1     4     3    13
 -0.0004748895     1     4     3    16
 -0.8134082366     1     4     4     1
 0.0291385771     1     4     4     2
 -0.0058992519     1     4     4     3
 -0.0054569286     1     4     4     6
 0.0029342938     1     4     4     7
 0.0011355099     1     4     4     8
 0.0047957280     1     4     4     9
 0.0022602943     1     4     4    10
 -0.0021142123     1     4     4    12
 -0.0014953408     1     4     4    13
 0.0046847170     1     4     4    16
 -0.0075125071     1     4     5     5
 0.0022887562     1     4     5    11
 -0.0034657116     1     4     5    14
 -0.0026653187     1     4     5    15
 -0.2207323233     1     4     6     1
 0.0128321068     1     4     6     2
 -0.0036256804     1     4     6     3
 -0.0063807080     1     4     6     6
 0.0003547882     1     4     6     7
 0.0024330491     1     4     6     8
 0.0019763861     1     4     6     9
 0.0015930723     1     4     6    10
 -0.0026563321     1     4     6    12
 0.0012602713     1     4     6    13
 0.0030093547     1     4     6    16
 -0.0528801095     1     4     7     1
 0.0018464757     1     4     7     2
 -0.0021031024     1     4     7     3
 -0.0012532242     1     4     7     6
 -0.0008096843     1     4     7     7
 0.0006053456     1     4     7     8
 0.0004032368     1     4     7     9
 -0.0015166217     1     4     7    10
 -0.0004978132     1     4     7    12
 0.0004354179     1     4     7    13
 0.0001251629     1     4     7    16
 0.0920016330     1     4     8     1
 -0.0063833391     1     4     8     2
 0.0019802715     1     4     8     3
 0.0035729252     1     4     8     6
 0.0003134555     1     4     8     7
 -0.0032370629     1     4     8     8
 -0.0013886674     1     4     8     9
 0.0000625847     1     4     8    10
 0.0019599218     1     4     8    12
 -0.0012162040     1     4     8    13
 -0.0016536723     1     4     8    16
 -0.0460112830     1     4     9     1
 0.0017625123     1     4     9     2
 -0.0004250627     1     4     9     3
 -0.0009825304     1     4     9     6
 0.0001896760     1     4     9     7
 -0.0000581156     1     4     9     8
 -0.0008493100     1     4     9     9
 0.0002301149     1     4     9    10
 -0.0018252908     1     4     9    12
 0.0005635749     1     4     9    13
 -0.0004081061     1     4     9    16
 0.1571880271     1     4    10     1
 -0.0097489552     1     4    10     2
 -0.0002717896     1     4    10     3
 0.0033939907     1     4    10     6
 -0.0028708858     1     4    10     7
 -0.0007043620     1     4    10     8
 -0.0020046219     1     4    10     9
 -0.0015993734     1     4    10    10
 0.0020018763     1     4    10    12
 0.0035570723     1     4    10    13
 -0.0030620044     1     4    10    16
 0.0031710456     1     4    11     5
 -0.0036892717     1     4    11    11
 0.0008018980     1     4    11    14
 -0.0003062790     1     4    11    15
 -0.0576958908     1     4    12     1
 0.0044664999     1     4    12     2
 -0.0010929083     1     4    12     3
 -0.0022599182     1     4    12     6
 0.0010254765     1     4    12     7
 0.0011895571     1     4    12     8
 -0.0004527800     1     4    12     9
 0.0026086380     1     4    12    10
 -0.0017322640     1     4    12    12
 -0.0005283523     1     4    12    13
 0.0013495434     1     4    12    16
 0.1525800143     1     4    13     1
 -0.0081444841     1     4    13     2
 0.0037436848     1     4    13     3
 0.0035347266     1     4    13     6
 -0.0008723075     1     4    13     7
 -0.0011676221     1     4    13     8
 -0.0013662110     1     4    13     9
 0.0017925877     1     4    13    10
 0.0014703232     1     4    13    12
 0.0014100506     1     4    13    13
 -0.0034316256     1     4    13    16
 -0.0021340245     1     4    14     5
 -0.0002019695     1     4    14    11
 -0.0016318349     1     4    14    14
 -0.0001656844     1     4    14    15
 -0.0004008454     1     4    15     5
 -0.0014681676     1     4    15    11
 0.0006106440     1     4    15    14
 -0.0001562387     1     4    15    15
 0.0274371262     1     4    16     1
 -0.0032231147     1     4    16     2
 0.0011326888     1     4    16     3
 0.0013833676     1     4    16     6
 -0.0007585885     1     4    16     7
 -0.0004409252     1     4    16     8
 -0.0015541712     1     4    16     9
 -0.0014290521     1     4    16    10
 0.0008003280     1     4    16    12
 -0.0013581019     1     4    16    13
 -0.0018678972     1     4    16    16
 0.0034733776     1     5     2    11
 -0.0036755899     1     5     2    14
 -0.0005189285     1     5     2    15
 -0.0016963321     1     5     3    11
 -0.0018053279     1     5     3    14
 0.0026970011     1     5     3    15
 -0.0011423605     1     5     4    11
 -0.0012091135     1     5     4    14
 -0.0022309335     1     5     4    15
 -1.0088040318     1     5     5     1
 0.0428549819     1     5     5     2
 -0.0099350193     1     5     5     3
 0.0075125071     1     5     5     4
 -0.0079689487     1     5     5     6
 0.0038782574     1     5     5     7
 0.0036327061     1     5     5     8
 0.0071508122     1     5     5     9
 -0.0004531148     1     5     5    10
 -0.0060868718     1     5     5    12
 -0.0064402906     1     5     5    13
 0.0064776116     1     5     5    16
 0.0006756280     1     5     6    11
 -0.0009305083     1     5     6    14
 -0.0004162033     1     5     6    15
 -0.0009649023     1     5     7    11
 0.0010376413     1     5     7    14
 0.0003894065     1     5     7    15
 0.0009071747     1     5     8    11
 -0.0002802651     1     5     8    14
 -0.0004949628     1     5     8    15
 0.0005523938     1     5     9    11
 -0.0007995205     1     5     9    14
 -0.0003686653     1     5     9    15
 0.0002996611     1     5    10    11
 -0.0004315775     1     5    10    14
 -0.0003525233     1     5    10    15
 0.2287117087     1     5    11     1
 -0.0140594798     1     5    11     2
 0.0031158730     1     5    11     3
 -0.0031710456     1     5    11     4
 0.0049774142     1     5    11     6
 -0.0023005814     1     5    11     7
 -0.0011513391     1     5    11     8
 -0.0024919606     1     5    11     9
 0.0003877726     1     5    11    10
 0.0025860764     1     5    11    12
 0.0019502220     1     5    11    13
 -0.0047014085     1     5    11    16
 -0.0004450051     1     5    12    11
 0.0003742504     1     5    12    14
 -0.0002528931     1     5    12    15
 -0.0001066569     1     5    13    11
 0.0000320698     1     5    13    14
 -0.0000478624     1     5    13    15
 -0.1927917823     1     5    14     1
 0.0121861023     1     5    14     2
 -0.0031565309     1     5    14     3
 0.0021340245     1     5    14     4
 -0.0033217013     1     5    14     6
 0.0034880219     1     5    14     7
 0.0006805543     1     5    14     8
 0.0022862765     1     5    14     9
 0.0004303081     1     5    14    10
 -0.0017004497     1     5    14    12
 -0.0038481706     1     5    14    13
 0.0041864941     1     5    14    16
 -0.0543947286     1     5    15     1
 0.0034231369     1     5    15     2
 -0.0006120926     1     5    15     3
 0.0004008454     1     5    15     4
 -0.0006437660     1     5    15     6
 0.0002253993     1     5    15     7
 -0.0003568590     1     5    15     8
 0.0004029755     1     5    15     9
 -0.0023058565     1     5    15    10
 -0.0007071747     1     5    15    12
 -0.0005556896     1     5    15    13
 0.0013284069     1     5    15    16
 -0.0016521346     1     5    16    11
 0.0018786444     1     5    16    14
 0.0008394264     1     5    16    15
 0.1090334799     1     6     2     1
 0.0001076780     1     6     2     2
 0.0011981798     1     6     2     3
 0.0011186813     1     6     2     4
 0.0001313996     1     6     2     7
 0.0002148810     1     6     2     8
 -0.0002362299     1     6     2     9
 0.0009192238     1     6     2    10
 -0.0006003756     1     6     2    12
 0.0008492479     1     6     2    13
 0.0005360514     1     6     2    16
 -0.0813568575     1     6     3     1
 0.0042683971     1     6     3     2
 0.0037358882     1     6     3     3
 -0.0016661061     1     6     3     4
 0.0019219680     1     6     3     7
 -0.0009281926     1     6     3     8
 0.0002271151     1     6     3     9
 0.0029279899     1     6     3    10
 -0.0012524785     1     6     3    12
 -0.0019572269     1     6     3    13
 0.0009626215     1     6     3    16
 -0.2207323233     1     6     4     1
 0.0149814992     1     6     4     2
 -0.0055157516     1     6     4     3
 0.0054569286     1     6     4     4
 0.0016269653     1     6     4     7
 -0.0011828038     1     6     4     8
 0.0030085617     1     6     4     9
 -0.0018641878     1     6     4    10
 -0.0004028440     1     6     4    12
 -0.0023089791     1     6     4    13
 0.0016696739     1     6     4    16
 0.0079689487     1     6     5     5
 -0.0043088948     1     6     5    11
 0.0023658686     1     6     5    14
 0.0002135699     1     6     5    15
 -0.4521704796     1     6     6     1
 0.0097135916     1     6     6     2
 -0.0008827291     1     6     6     3
 0.0063807080     1     6     6     4
 0.0017066840     1     6     6     7
 -0.0007567984     1     6     6     8
 0.0021001692     1     6     6     9
 -0.0007162185     1     6     6    10
 -0.0002618646     1     6     6    12
 -0.0030677088     1     6     6    13
 0.0009641523     1     6     6    16
 -0.0344867608     1     6     7     1
 0.0036043769     1     6     7     2
 0.0018768672     1     6     7     3
 0.0012532242     1     6     7     4
 0.0016240436     1     6     7     7
 -0.0003095024     1     6     7     8
 0.0009037177     1     6     7     9
 0.0009675086     1     6     7    10
 0.0000633664     1     6     7    12
 -0.0023746710     1     6     7    13
 0.0002449540     1     6     7    16
 0.1420035848     1     6     8     1
 -0.0050877711     1     6     8     2
 0.0001181917     1     6     8     3
 -0.0035729252     1     6     8     4
 -0.0008630523     1     6     8     7
 -0.0008292327     1     6     8     8
 -0.0012491117     1     6     8     9
 0.0005466452     1     6     8    10
 0.0004460118     1     6     8    12
 0.0015936007     1     6     8    13
 -0.0006943031     1     6     8    16
 0.0044611291     1     6     9     1
 0.0014758943     1     6     9     2
 -0.0005461447     1     6     9     3
 0.0009825304     1     6     9     4
 0.0004577993     1     6     9     7
 -0.0002528927     1     6     9     8
 -0.0002935304     1     6     9     9
 0.0003791378     1     6     9    10
 -0.0008372337     1     6     9    12
 -0.0006815954     1     6     9    13
 -0.0004180088     1     6     9    16
 0.0532937978     1     6    10     1
 -0.0028638660     1     6    10     2
 0.0045846109     1     6    10     3
 -0.0033939907     1     6    10     4
 0.0003437446     1     6    10     7
 0.0002460288     1     6    10     8
 -0.0003579397     1     6    10     9
 0.0037564443     1     6    10    10
 0.0001913555     1     6    10    12
 0.0008134617     1     6    10    13
 -0.0006935235     1     6    10    16
 -0.0049774142     1     6    11     5
 0.0009681150     1     6    11    11
 -0.0024667003     1     6    11    14
 -0.0010325455     1     6    11    15
 -0.0831909709     1     6    12     1
 0.0034101443     1     6    12     2
 -0.0006811355     1     6    12     3
 0.0022599182     1     6    12     4
 0.0011010536     1     6    12     7
 -0.0000388467     1     6    12     8
 0.0001018878     1     6    12     9
 0.0003179228     1     6    12    10
 -0.0004544483     1     6    12    12
 -0.0017042759     1     6    12    13
 0.0001256090     1     6    12    16
 0.0991640305     1     6    13     1
 -0.0079301118     1     6    13     2
 -0.0008164002     1     6    13     3
 -0.0035347266     1     6    13     4
 -0.0028238716     1     6    13     7
 0.0007183135     1     6    13     8
 -0.0020651546     1     6    13     9
 0.0001201950     1     6    13    10
 0.0000375594     1     6    13    12
 0.0048259252     1     6    13    13
 -0.0017786259     1     6    13    16
 0.0033217013     1     6    14     5
 -0.0026319355     1     6    14    11
 0.0014648690     1     6    14    14
 0.0001421223     1     6    14    15
 0.0006437660     1     6    15     5
 -0.0011541440     1     6    15    11
 0.0002063811     1     6    15    14
 0.0001794366     1     6    15    15
 0.0816840676     1     6    16     1
 -0.0025490943     1     6    16     2
 0.0001619165     1     6    16     3
 -0.0013833676     1     6    16     4
 -0.0008630496     1     6    16     7
 0.0000932441     1     6    16     8
 -0.0012771793     1     6    16     9
 -0.0005737119     1     6    16    10
 -0.0002077250     1     6    16    12
 0.0002918966     1     6    16    13
 -0.0006647152     1     6    16    16
 -0.0792401476     1     7     2     1
 0.0018669680     1     7     2     2
 0.0011316945     1     7     2     3
 0.0006151481     1     7     2     4
 -0.0001313996     1     7     2     6
 0.0001561957     1     7     2     8
 -0.0000844220     1     7     2     9
 -0.0006604362     1     7     2    10
 -0.0002601120     1     7     2    12
 0.0005239001     1     7     2    13