&FCI NORB=  6,NELEC=  6,MS2=0,
 ORBSYM=1,1,1,1,1,1
 ISYM=1,
&END
 0.2006728677     1     1     2     2
 -0.0250324158     1     1     2     4
 -0.0016115181     1     1     2     6
 0.2428127037     1     1     3     3
 0.0362733056     1     1     3     5
 -0.0250324158     1     1     4     2
 0.2438395666     1     1     4     4
 -0.0529462045     1     1     4     6
 0.0362733056     1     1     5     3
 0.1862293722     1     1     5     5
 -0.0016115181     1     1     6     2
 -0.0529462045     1     1     6     4
 0.1881770301     1     1     6     6
 -0.2006728677     1     2     2     1
 -0.0663986455     1     2     2     3
 -0.0045505541     1     2     2     5
 -0.0544244600     1     2     3     4
 0.0260101166     1     2     3     6
 0.0250324158     1     2     4     1
 -0.0200107352     1     2     4     3
 0.0450908174     1     2     4     5
 0.0332129102     1     2     5     4
 0.0350835103     1     2     5     6
 0.0016115181     1     2     6     1
 0.0172189667     1     2     6     3
 0.0289302469     1     2     6     5
 0.0663986455     1     3     2     2
 -0.0352793637     1     3     2     4
 0.0089761066     1     3     2     6
 -0.2428127037     1     3     3     1
 0.0260512738     1     3     3     5
 0.0200107352     1     3     4     2
 0.0063230286     1     3     4     4
 -0.0178958980     1     3     4     6
 -0.0362733056     1     3     5     1
 -0.0044199619     1     3     5     5
 -0.0172189667     1     3     6     2
 -0.0061395171     1     3     6     4
 -0.0019401968     1     3     6     6
 0.0250324158     1     4     2     1
 0.0352793637     1     4     2     3
 0.0126166345     1     4     2     5
 0.0544244600     1     4     3     2
 -0.0117281472     1     4     3     6
 -0.2438395666     1     4     4     1
 -0.0063230286     1     4     4     3
 0.0052848999     1     4     4     5
 -0.0332129102     1     4     5     2
 0.0031356175     1     4     5     6
 0.0529462045     1     4     6     1
 0.0061395171     1     4     6     3
 -0.0030337586     1     4     6     5
 0.0045505541     1     5     2     2
 -0.0126166345     1     5     2     4
 0.0068586152     1     5     2     6
 -0.0362733056     1     5     3     1
 -0.0260512738     1     5     3     3
 -0.0450908174     1     5     4     2
 -0.0052848999     1     5     4     4
 0.0061667871     1     5     4     6
 -0.1862293722     1     5     5     1
 0.0044199619     1     5     5     3
 -0.0289302469     1     5     6     2
 0.0030337586     1     5     6     4
 -0.0025217884     1     5     6     6
 0.0016115181     1     6     2     1
 -0.0089761066     1     6     2     3
 -0.0068586152     1     6     2     5
 -0.0260101166     1     6     3     2
 0.0117281472     1     6     3     4
 0.0529462045     1     6     4     1
 0.0178958980     1     6     4     3
 -0.0061667871     1     6     4     5
 -0.0350835103     1     6     5     2
 -0.0031356175     1     6     5     4
 -0.1881770301     1     6     6     1
 0.0019401968     1     6     6     3
 0.0025217884     1     6     6     5
 -0.2006728677     2     1     1     2
 0.0250324158     2     1     1     4
 0.0016115181     2     1     1     6
 -0.0663986455     2     1     3     2
 -0.0200107352     2     1     3     4
 0.0172189667     2     1     3     6
 -0.0544244600     2     1     4     3
 0.0332129102     2     1     4     5
 -0.0045505541     2     1     5     2
 0.0450908174     2     1     5     4
 0.0289302469     2     1     5     6
 0.0260101166     2     1     6     3
 0.0350835103     2     1     6     5
 0.2006728677     2     2     1     1
 0.0663986455     2     2     1     3
 0.0045505541     2     2     1     5
 0.0663986455     2     2     3     1
 0.2026392644     2     2     3     3
 0.0133410194     2     2     3     5
 0.2261822722     2     2     4     4
 -0.0353243493     2     2     4     6
 0.0045505541     2     2     5     1
 0.0133410194     2     2     5     3
 0.1890146990     2     2     5     5
 -0.0353243493     2     2     6     4
 0.1881890796     2     2     6     6
 -0.0663986455     2     3     1     2
 0.0352793637     2     3     1     4
 -0.0089761066     2     3     1     6
 -0.2026392644     2     3     3     2
 0.0709471255     2     3     3     4
 -0.0162353434     2     3     3     6
 0.0544244600     2     3     4     1
 -0.0552146510     2     3     4     5
 -0.0133410194     2     3     5     2
 -0.0299768138     2     3     5     4
 -0.0411132836     2     3     5     6
 -0.0260101166     2     3     6     1
 -0.0282686214     2     3     6     5
 -0.0000000001     2     3     6     6
 -0.0250324158     2     4     1     1
 -0.0352793637     2     4     1     3
 -0.0126166345     2     4     1     5
 0.0200107352     2     4     3     1
 -0.0709471255     2     4     3     3
 -0.0265142056     2     4     3     5
 -0.2261822722     2     4     4     2
 0.0272690533     2     4     4     6
 -0.0450908174     2     4     5     1
 0.0299768138     2     4     5     3
 0.0050630293     2     4     5     5
 0.0353243493     2     4     6     2
 -0.0013097141     2     4     6     6
 -0.0045505541     2     5     1     2
 0.0126166345     2     5     1     4
 -0.0068586152     2     5     1     6
 -0.0133410194     2     5     3     2
 0.0265142056     2     5     3     4
 -0.0137023821     2     5     3     6
 -0.0332129102     2     5     4     1
 0.0552146510     2     5     4     3
 -0.1890146990     2     5     5     2
 -0.0050630293     2     5     5     4
 0.0114565797     2     5     5     6
 -0.0350835103     2     5     6     1
 0.0282686214     2     5     6     3
 0.0000000001     2     5     6     6
 -0.0016115181     2     6     1     1
 0.0089761066     2     6     1     3
 0.0068586152     2     6     1     5
 -0.0172189667     2     6     3     1
 0.0162353434     2     6     3     3
 0.0137023821     2     6     3     5
 0.0353243493     2     6     4     2
 -0.0272690533     2     6     4     4
 -0.0289302469     2     6     5     1
 0.0411132836     2     6     5     3
 -0.0114565797     2     6     5     5
 -0.1881890796     2     6     6     2
 0.0000000001     2     6     6     3
 0.0013097141     2     6     6     4
 -0.0000000001     2     6     6     5
 -0.2428127037     3     1     1     3
 -0.0362733056     3     1     1     5
 0.0663986455     3     1     2     2
 0.0200107352     3     1     2     4
 -0.0172189667     3     1     2     6
 -0.0352793637     3     1     4     2
 0.0063230286     3     1     4     4
 -0.0061395171     3     1     4     6
 0.0260512738     3     1     5     3
 -0.0044199619     3     1     5     5
 0.0089761066     3     1     6     2
 -0.0178958980     3     1     6     4
 -0.0019401968     3     1     6     6
 0.0544244600     3     2     1     4
 -0.0260101166     3     2     1     6
 -0.0663986455     3     2     2     1
 -0.2026392644     3     2     2     3
 -0.0133410194     3     2     2     5
 0.0352793637     3     2     4     1
 0.0709471255     3     2     4     3
 -0.0299768138     3     2     4     5
 -0.0552146510     3     2     5     4
 -0.0282686214     3     2     5     6
 -0.0089761066     3     2     6     1
 -0.0162353434     3     2     6     3
 -0.0411132836     3     2     6     5
 -0.0000000001     3     2     6     6
 0.2428127037     3     3     1     1
 -0.0260512738     3     3     1     5
 0.2026392644     3     3     2     2
 -0.0709471255     3     3     2     4
 0.0162353434     3     3     2     6
 -0.0709471255     3     3     4     2
 0.2181371322     3     3     4     4
 -0.0262090287     3     3     4     6
 -0.0260512738     3     3     5     1
 0.1842341328     3     3     5     5
 0.0162353434     3     3     6     2
 -0.0262090287     3     3     6     4
 0.1808787582     3     3     6     6
 -0.0544244600     3     4     1     2
 0.0117281472     3     4     1     6
 -0.0200107352     3     4     2     1
 0.0709471255     3     4     2     3
 0.0265142056     3     4     2     5
 -0.0063230286     3     4     4     1
 -0.2181371322     3     4     4     3
 -0.0603352365     3     4     4     5
 -0.0000000001     3     4     4     6
 0.0552146510     3     4     5     2
 -0.0486860100     3     4     5     6
 0.0178958980     3     4     6     1
 0.0262090287     3     4     6     3
 -0.0162747319     3     4     6     5
 -0.0000000004     3     4     6     6
 0.0362733056     3     5     1     1
 0.0260512738     3     5     1     3
 0.0133410194     3     5     2     2
 -0.0265142056     3     5     2     4
 0.0137023821     3     5     2     6
 0.0299768138     3     5     4     2
 0.0603352365     3     5     4     4
 -0.0326154091     3     5     4     6
 0.0044199619     3     5     5     1
 -0.1842341328     3     5     5     3
 -0.0000000002     3     5     5     6
 0.0411132836     3     5     6     2
 0.0162747319     3     5     6     4
 -0.0049748250     3     5     6     6
 0.0260101166     3     6     1     2
 -0.0117281472     3     6     1     4
 0.0172189667     3     6     2     1
 -0.0162353434     3     6     2     3
 -0.0137023821     3     6     2     5
 0.0061395171     3     6     4     1
 0.0262090287     3     6     4     3
 0.0000000001     3     6     4     4
 0.0326154091     3     6     4     5
 0.0282686214     3     6     5     2
 0.0486860100     3     6     5     4
 0.0000000002     3     6     5     5
 0.0019401968     3     6     6     1
 0.0000000001     3     6     6     2
 -0.1808787582     3     6     6     3
 0.0000000004     3     6     6     4
 0.0049748250     3     6     6     5
 0.0250324158     4     1     1     2
 -0.2438395666     4     1     1     4
 0.0529462045     4     1     1     6
 0.0544244600     4     1     2     3
 -0.0332129102     4     1     2     5
 0.0352793637     4     1     3     2
 -0.0063230286     4     1     3     4
 0.0061395171     4     1     3     6
 0.0126166345     4     1     5     2
 0.0052848999     4     1     5     4
 -0.0030337586     4     1     5     6
 -0.0117281472     4     1     6     3
 0.0031356175     4     1     6     5
 -0.0250324158     4     2     1     1
 0.0200107352     4     2     1     3
 -0.0450908174     4     2     1     5
 -0.2261822722     4     2     2     4
 0.0353243493     4     2     2     6
 -0.0352793637     4     2     3     1
 -0.0709471255     4     2     3     3
 0.0299768138     4     2     3     5
 -0.0126166345     4     2     5     1
 -0.0265142056     4     2     5     3
 0.0050630293     4     2     5     5
 0.0272690533     4     2     6     4
 -0.0013097141     4     2     6     6
 -0.0200107352     4     3     1     2
 -0.0063230286     4     3     1     4
 0.0178958980     4     3     1     6
 -0.0544244600     4     3     2     1
 0.0552146510     4     3     2     5
 0.0709471255     4     3     3     2
 -0.2181371322     4     3     3     4
 0.0262090287     4     3     3     6
 0.0265142056     4     3     5     2
 -0.0603352365     4     3     5     4
 -0.0162747319     4     3     5     6
 0.0117281472     4     3     6     1
 -0.0000000001     4     3     6     4
 -0.0486860100     4     3     6     5
 -0.0000000004     4     3     6     6
 0.2438395666     4     4     1     1
 0.0063230286     4     4     1     3
 -0.0052848999     4     4     1     5
 0.2261822722     4     4     2     2
 -0.0272690533     4     4     2     6
 0.0063230286     4     4     3     1
 0.2181371322     4     4     3     3
 0.0603352365     4     4     3     5
 0.0000000001     4     4     3     6
 -0.0052848999     4     4     5     1
 0.0603352365     4     4     5     3
 0.1491770667     4     4     5     5
 -0.0272690533     4     4     6     2
 0.0000000001     4     4     6     3
 0.1691021348     4     4     6     6
 0.0450908174     4     5     1     2
 0.0052848999     4     5     1     4
 -0.0061667871     4     5     1     6
 0.0332129102     4     5     2     1
 -0.0552146510     4     5     2     3
 -0.0299768138     4     5     3     2
 -0.0603352365     4     5     3     4
 0.0326154091     4     5     3     6
 -0.0050630293     4     5     5     2
 -0.1491770667     4     5     5     4
 0.0518572970     4     5     5     6
 -0.0031356175     4     5     6     1
 0.0486860100     4     5     6     3
 -0.0000000005     4     5     6     6
 -0.0529462045     4     6     1     1
 -0.0178958980     4     6     1     3
 0.0061667871     4     6     1     5
 -0.0353243493     4     6     2     2
 0.0272690533     4     6     2     4
 -0.0061395171     4     6     3     1
 -0.0262090287     4     6     3     3
 -0.0000000001     4     6     3     4
 -0.0326154091     4     6     3     5
 0.0030337586     4     6     5     1
 0.0162747319     4     6     5     3
 -0.0518572970     4     6     5     5
 0.0013097141     4     6     6     2
 0.0000000004     4     6     6     3
 -0.1691021348     4     6     6     4
 0.0000000005     4     6     6     5
 -0.0362733056     5     1     1     3
 -0.1862293722     5     1     1     5
 0.0045505541     5     1     2     2
 -0.0450908174     5     1     2     4
 -0.0289302469     5     1     2     6
 -0.0260512738     5     1     3     3
 0.0044199619     5     1     3     5
 -0.0126166345     5     1     4     2
 -0.0052848999     5     1     4     4
 0.0030337586     5     1     4     6
 0.0068586152     5     1     6     2
 0.0061667871     5     1     6     4
 -0.0025217884     5     1     6     6
 -0.0332129102     5     2     1     4
 -0.0350835103     5     2     1     6
 -0.0045505541     5     2     2     1
 -0.0133410194     5     2     2     3
 -0.1890146990     5     2     2     5
 0.0552146510     5     2     3     4
 0.0282686214     5     2     3     6
 0.0126166345     5     2     4     1
 0.0265142056     5     2     4     3
 -0.0050630293     5     2     4     5
 -0.0068586152     5     2     6     1
 -0.0137023821     5     2     6     3
 0.0114565797     5     2     6     5
 0.0000000001     5     2     6     6
 0.0362733056     5     3     1     1
 0.0044199619     5     3     1     5
 0.0133410194     5     3     2     2
 0.0299768138     5     3     2     4
 0.0411132836     5     3     2     6
 0.0260512738     5     3     3     1
 -0.1842341328     5     3     3     5
 -0.0265142056     5     3     4     2
 0.0603352365     5     3     4     4
 0.0162747319     5     3     4     6
 0.0137023821     5     3     6     2
 -0.0326154091     5     3     6     4
 -0.0000000002     5     3     6     5
 -0.0049748250     5     3     6     6
 0.0332129102     5     4     1     2
 -0.0031356175     5     4     1     6
 0.0450908174     5     4     2     1
 -0.0299768138     5     4     2     3
 -0.0050630293     5     4     2     5
 -0.0552146510     5     4     3     2
 0.0486860100     5     4     3     6
 0.0052848999     5     4     4     1
 -0.0603352365     5     4     4     3
 -0.1491770667     5     4     4     5
 -0.0061667871     5     4     6     1
 0.0326154091     5     4     6     3
 0.0518572970     5     4     6     5
 -0.0000000005     5     4     6     6
 0.1862293722     5     5     1     1
 -0.0044199619     5     5     1     3
 0.1890146990     5     5     2     2
 0.0050630293     5     5     2     4
 -0.0114565797     5     5     2     6
 -0.0044199619     5     5     3     1
 0.1842341328     5     5     3     3
 0.0000000002     5     5     3     6
 0.0050630293     5     5     4     2
 0.1491770667     5     5     4     4
 -0.0518572970     5     5     4     6
 -0.0114565797     5     5     6     2
 0.0000000002     5     5     6     3
 -0.0518572970     5     5     6     4
 0.1303232334     5     5     6     6
 0.0350835103     5     6     1     2
 0.0031356175     5     6     1     4
 0.0289302469     5     6     2     1
 -0.0411132836     5     6     2     3
 0.0114565797     5     6     2     5
 -0.0282686214     5     6     3     2
 -0.0486860100     5     6     3     4
 -0.0000000002     5     6     3     5
 -0.0030337586     5     6     4     1
 -0.0162747319     5     6     4     3
 0.0518572970     5     6     4     5
 0.0025217884     5     6     6     1
 -0.0000000001     5     6     6     2
 0.0049748250     5     6     6     3
 0.0000000005     5     6     6     4
 -0.1303232334     5     6     6     5
 0.0016115181     6     1     1     2
 0.0529462045     6     1     1     4
 -0.1881770301     6     1     1     6
 -0.0260101166     6     1     2     3
 -0.0350835103     6     1     2     5
 -0.0089761066     6     1     3     2
 0.0178958980     6     1     3     4
 0.0019401968     6     1     3     6
 0.0117281472     6     1     4     3
 -0.0031356175     6     1     4     5
 -0.0068586152     6     1     5     2
 -0.0061667871     6     1     5     4
 0.0025217884     6     1     5     6
 -0.0016115181     6     2     1     1
 -0.0172189667     6     2     1     3
 -0.0289302469     6     2     1     5
 0.0353243493     6     2     2     4
 -0.1881890796     6     2     2     6
 0.0089761066     6     2     3     1
 0.0162353434     6     2     3     3
 0.0411132836     6     2     3     5
 0.0000000001     6     2     3     6
 -0.0272690533     6     2     4     4
 0.0013097141     6     2     4     6
 0.0068586152     6     2     5     1
 0.0137023821     6     2     5     3
 -0.0114565797     6     2     5     5
 -0.0000000001     6     2     5     6
 0.0172189667     6     3     1     2
 0.0061395171     6     3     1     4
 0.0019401968     6     3     1     6
 0.0260101166     6     3     2     1
 0.0282686214     6     3     2     5
 0.0000000001     6     3     2     6
 -0.0162353434     6     3     3     2
 0.0262090287     6     3     3     4
 -0.1808787582     6     3     3     6
 -0.0117281472     6     3     4     1
 0.0000000001     6     3     4     4
 0.0486860100     6     3     4     5
 0.0000000004     6     3     4     6
 -0.0137023821     6     3     5     2
 0.0326154091     6     3     5     4
 0.0000000002     6     3     5     5
 0.0049748250     6     3     5     6
 -0.0529462045     6     4     1     1
 -0.0061395171     6     4     1     3
 0.0030337586     6     4     1     5
 -0.0353243493     6     4     2     2
 0.0013097141     6     4     2     6
 -0.0178958980     6     4     3     1
 -0.0262090287     6     4     3     3
 0.0162747319     6     4     3     5
 0.0000000004     6     4     3     6
 0.0272690533     6     4     4     2
 -0.0000000001     6     4     4     3
 -0.1691021348     6     4     4     6
 0.0061667871     6     4     5     1
 -0.0326154091     6     4     5     3
 -0.0518572970     6     4     5     5
 0.0000000005     6     4     5     6
 0.0289302469     6     5     1     2
 -0.0030337586     6     5     1     4
 0.0025217884     6     5     1     6
 0.0350835103     6     5     2     1
 -0.0282686214     6     5     2     3
 -0.0000000001     6     5     2     6
 -0.0411132836     6     5     3     2
 -0.0162747319     6     5     3     4
 0.0049748250     6     5     3     6
 0.0031356175     6     5     4     1
 -0.0486860100     6     5     4     3
 0.0000000005     6     5     4     6
 0.0114565797     6     5     5     2
 -0.0000000002     6     5     5     3
 0.0518572970     6     5     5     4
 -0.1303232334     6     5     5     6
 0.1881770301     6     6     1     1
 -0.0019401968     6     6     1     3
 -0.0025217884     6     6     1     5
 0.1881890796     6     6     2     2
 -0.0000000001     6     6     2     3
 -0.0013097141     6     6     2     4
 0.0000000001     6     6     2     5
 -0.0019401968     6     6     3     1
 -0.0000000001     6     6     3     2
 0.1808787582     6     6     3     3
 -0.0000000004     6     6     3     4
 -0.0049748250     6     6     3     5
 -0.0013097141     6     6     4     2
 -0.0000000004     6     6     4     3
 0.1691021348     6     6     4     4
 -0.0000000005     6     6     4     5
 -0.0025217884     6     6     5     1
 0.0000000001     6     6     5     2
 -0.0049748250     6     6     5     3
 -0.0000000005     6     6     5     4
 0.1303232334     6     6     5     5
0.0 0 0 0 0
 0.2006728677     1     1     2     2
 -0.0250324158     1     1     2     4
 -0.0016115181     1     1     2     6
 0.2428127037     1     1     3     3
 0.0362733056     1     1     3     5
 -0.0250324158     1     1     4     2
 0.2438395666     1     1     4     4
 -0.0529462045     1     1     4     6
 0.0362733056     1     1     5     3
 0.1862293722     1     1     5     5
 -0.0016115181     1     1     6     2
 -0.0529462045     1     1     6     4
 0.1881770301     1     1     6     6
 -0.2006728677     1     2     2     1
 -0.0663986455     1     2     2     3
 -0.0045505541     1     2     2     5
 -0.0544244600     1     2     3     4
 0.0260101166     1     2     3     6
 0.0250324158     1     2     4     1
 -0.0200107352     1     2     4     3
 0.0450908174     1     2     4     5
 0.0332129102     1     2     5     4
 0.0350835103     1     2     5     6
 0.0016115181     1     2     6     1
 0.0172189667     1     2     6     3
 0.0289302469     1     2     6     5
 0.0663986455     1     3     2     2
 -0.0352793637     1     3     2     4
 0.0089761066     1     3     2     6
 -0.2428127037     1     3     3     1
 0.0260512738     1     3     3     5
 0.0200107352     1     3     4     2
 0.0063230286     1     3     4     4
 -0.0178958980     1     3     4     6
 -0.0362733056     1     3     5     1
 -0.0044199619     1     3     5     5
 -0.0172189667     1     3     6     2
 -0.0061395171     1     3     6     4
 -0.0019401968     1     3     6     6
 0.0250324158     1     4     2     1
 0.0352793637     1     4     2     3
 0.0126166345     1     4     2     5
 0.0544244600     1     4     3     2
 -0.0117281472     1     4     3     6
 -0.2438395666     1     4     4     1
 -0.0063230286     1     4     4     3
 0.0052848999     1     4     4     5
 -0.0332129102     1     4     5     2
 0.0031356175     1     4     5     6
 0.0529462045     1     4     6     1
 0.0061395171     1     4     6     3
 -0.0030337586     1     4     6     5
 0.0045505541     1     5     2     2
 -0.0126166345     1     5     2     4
 0.0068586152     1     5     2     6
 -0.0362733056     1     5     3     1
 -0.0260512738     1     5     3     3
 -0.0450908174     1     5     4     2
 -0.0052848999     1     5     4     4
 0.0061667871     1     5     4     6
 -0.1862293722     1     5     5     1
 0.0044199619     1     5     5     3
 -0.0289302469     1     5     6     2
 0.0030337586     1     5     6     4
 -0.0025217884     1     5     6     6
 0.0016115181     1     6     2     1
 -0.0089761066     1     6     2     3
 -0.0068586152     1     6     2     5
 -0.0260101166     1     6     3     2
 0.0117281472     1     6     3     4
 0.0529462045     1     6     4     1
 0.0178958980     1     6     4     3
 -0.0061667871     1     6     4     5
 -0.0350835103     1     6     5     2
 -0.0031356175     1     6     5     4
 -0.1881770301     1     6     6     1
 0.0019401968     1     6     6     3
 0.0025217884     1     6     6     5
 -0.2006728677     2     1     1     2
 0.0250324158     2     1     1     4
 0.0016115181     2     1     1     6
 -0.0663986455     2     1     3     2
 -0.0200107352     2     1     3     4
 0.0172189667     2     1     3     6
 -0.0544244600     2     1     4     3
 0.0332129102     2     1     4     5
 -0.0045505541     2     1     5     2
 0.0450908174     2     1     5     4
 0.0289302469     2     1     5     6
 0.0260101166     2     1     6     3
 0.0350835103     2     1     6     5
 0.2006728677     2     2     1     1
 0.0663986455     2     2     1     3
 0.0045505541     2     2     1     5
 0.0663986455     2     2     3     1
 0.2026392644     2     2     3     3
 0.0133410194     2     2     3     5
 0.2261822722     2     2     4     4
 -0.0353243493     2     2     4     6
 0.0045505541     2     2     5     1
 0.0133410194     2     2     5     3
 0.1890146990     2     2     5     5
 -0.0353243493     2     2     6     4
 0.1881890796     2     2     6     6
 -0.0663986455     2     3     1     2
 0.0352793637     2     3     1     4
 -0.0089761066     2     3     1     6
 -0.2026392644     2     3     3     2
 0.0709471255     2     3     3     4
 -0.0162353434     2     3     3     6
 0.0544244600     2     3     4     1
 -0.0552146510     2     3     4     5
 -0.0133410194     2     3     5     2
 -0.0299768138     2     3     5     4
 -0.0411132836     2     3     5     6
 -0.0260101166     2     3     6     1
 -0.0282686214     2     3     6     5
 -0.0000000001     2     3     6     6
 -0.0250324158     2     4     1     1
 -0.0352793637     2     4     1     3
 -0.0126166345     2     4     1     5
 0.0200107352     2     4     3     1
 -0.0709471255     2     4     3     3
 -0.0265142056     2     4     3     5
 -0.2261822722     2     4     4     2
 0.0272690533     2     4     4     6
 -0.0450908174     2     4     5     1
 0.0299768138     2     4     5     3
 0.0050630293     2     4     5     5
 0.0353243493     2     4     6     2
 -0.0013097141     2     4     6     6
 -0.0045505541     2     5     1     2
 0.0126166345     2     5     1     4
 -0.0068586152     2     5     1     6
 -0.0133410194     2     5     3     2
 0.0265142056     2     5     3     4
 -0.0137023821     2     5     3     6
 -0.0332129102     2     5     4     1
 0.0552146510     2     5     4     3
 -0.1890146990     2     5     5     2
 -0.0050630293     2     5     5     4
 0.0114565797     2     5     5     6
 -0.0350835103     2     5     6     1
 0.0282686214     2     5     6     3
 0.0000000001     2     5     6     6
 -0.0016115181     2     6     1     1
 0.0089761066     2     6     1     3
 0.0068586152     2     6     1     5
 -0.0172189667     2     6     3     1
 0.0162353434     2     6     3     3
 0.0137023821     2     6     3     5
 0.0353243493     2     6     4     2
 -0.0272690533     2     6     4     4
 -0.0289302469     2     6     5     1
 0.0411132836     2     6     5     3
 -0.0114565797     2     6     5     5
 -0.1881890796     2     6     6     2
 0.0000000001     2     6     6     3
 0.0013097141     2     6     6     4
 -0.0000000001     2     6     6     5
 -0.2428127037     3     1     1     3
 -0.0362733056     3     1     1     5
 0.0663986455     3     1     2     2
 0.0200107352     3     1     2     4
 -0.0172189667     3     1     2     6
 -0.0352793637     3     1     4     2
 0.0063230286     3     1     4     4
 -0.0061395171     3     1     4     6
 0.0260512738     3     1     5     3
 -0.0044199619     3     1     5     5
 0.0089761066     3     1     6     2
 -0.0178958980     3     1     6     4
 -0.0019401968     3     1     6     6
 0.0544244600     3     2     1     4
 -0.0260101166     3     2     1     6
 -0.0663986455     3     2     2     1
 -0.2026392644     3     2     2     3
 -0.0133410194     3     2     2     5
 0.0352793637     3     2     4     1
 0.0709471255     3     2     4     3
 -0.0299768138     3     2     4     5
 -0.0552146510     3     2     5     4
 -0.0282686214     3     2     5     6
 -0.0089761066     3     2     6     1
 -0.0162353434     3     2     6     3
 -0.0411132836     3     2     6     5
 -0.0000000001     3     2     6     6
 0.2428127037     3     3     1     1
 -0.0260512738     3     3     1     5
 0.2026392644     3     3     2     2
 -0.0709471255     3     3     2     4
 0.0162353434     3     3     2     6
 -0.0709471255     3     3     4     2
 0.2181371322     3     3     4     4
 -0.0262090287     3     3     4     6
 -0.0260512738     3     3     5     1
 0.1842341328     3     3     5     5
 0.0162353434     3     3     6     2
 -0.0262090287     3     3     6     4
 0.1808787582     3     3     6     6
 -0.0544244600     3     4     1     2
 0.0117281472     3     4     1     6
 -0.0200107352     3     4     2     1
 0.0709471255     3     4     2     3
 0.0265142056     3     4     2     5
 -0.0063230286     3     4     4     1
 -0.2181371322     3     4     4     3
 -0.0603352365     3     4     4     5
 -0.0000000001     3     4     4     6
 0.0552146510     3     4     5     2
 -0.0486860100     3     4     5     6
 0.0178958980     3     4     6     1
 0.0262090287     3     4     6     3
 -0.0162747319     3     4     6     5
 -0.0000000004     3     4     6     6
 0.0362733056     3     5     1     1
 0.0260512738     3     5     1     3
 0.0133410194     3     5     2     2
 -0.0265142056     3     5     2     4
 0.0137023821     3     5     2     6
 0.0299768138     3     5     4     2
 0.0603352365     3     5     4     4
 -0.0326154091     3     5     4     6
 0.0044199619     3     5     5     1
 -0.1842341328     3     5     5     3
 -0.0000000002     3     5     5     6
 0.0411132836     3     5     6     2
 0.0162747319     3     5     6     4
 -0.0049748250     3     5     6     6
 0.0260101166     3     6     1     2
 -0.0117281472     3     6     1     4
 0.0172189667     3     6     2     1
 -0.0162353434     3     6     2     3
 -0.0137023821     3     6     2     5
 0.0061395171     3     6     4     1
 0.0262090287     3     6     4     3
 0.0000000001     3     6     4     4
 0.0326154091     3     6     4     5
 0.0282686214     3     6     5     2
 0.0486860100     3     6     5     4
 0.0000000002     3     6     5     5
 0.0019401968     3     6     6     1
 0.0000000001     3     6     6     2
 -0.1808787582     3     6     6     3
 0.0000000004     3     6     6     4
 0.0049748250     3     6     6     5
 0.0250324158     4     1     1     2
 -0.2438395666     4     1     1     4
 0.0529462045     4     1     1     6
 0.0544244600     4     1     2     3
 -0.0332129102     4     1     2     5
 0.0352793637     4     1     3     2
 -0.0063230286     4     1     3     4
 0.0061395171     4     1     3     6
 0.0126166345     4     1     5     2
 0.0052848999     4     1     5     4
 -0.0030337586     4     1     5     6
 -0.0117281472     4     1     6     3
 0.0031356175     4     1     6     5
 -0.0250324158     4     2     1     1
 0.0200107352     4     2     1     3