&FCI NORB= 16,NELEC= 10,MS2=0,
 ORBSYM=1,1,1,1,1,1,1,1,1,1,1,1,1,1,1,1
 ISYM=1,
&END
 0.9973575756     1     1     2     2
 -0.0404203011     1     1     2     3
 0.0681568502     1     1     2     4
 -0.1089502702     1     1     2     6
 0.0790251782     1     1     2     7
 0.0321584689     1     1     2     8
 0.0673114242     1     1     2     9
 0.0315965534     1     1     2    10
 -0.0584489564     1     1     2    12
 -0.0825230851     1     1     2    13
 0.0972383880     1     1     2    16
 -0.0404203011     1     1     3     2
 0.8765798827     1     1     3     3
 -0.0802345803     1     1     3     4
 0.0814499984     1     1     3     6
 0.1374397694     1     1     3     7
 -0.0409572927     1     1     3     8
 0.0025551945     1     1     3     9
 0.2011798535     1     1     3    10
 0.0387627471     1     1     3    12
 -0.1267839154     1     1     3    13
 -0.0267520427     1     1     3    16
 0.0681568502     1     1     4     2
 -0.0802345803     1     1     4     3
 0.8149279149     1     1     4     4
 0.2208751294     1     1     4     6
 0.0529392762     1     1     4     7
 -0.0919722626     1     1     4     8
 0.0459540352     1     1     4     9
 -0.1571887298     1     1     4    10
 0.0576493689     1     1     4    12
 -0.1526265712     1     1     4    13
 -0.0274088236     1     1     4    16
 1.0104758772     1     1     5     5
 0.2282722629     1     1     5    11
 0.1924958959     1     1     5    14
 0.0543845450     1     1     5    15
 -0.1089502702     1     1     6     2
 0.0814499984     1     1     6     3
 0.2208751294     1     1     6     4
 0.4513448501     1     1     6     6
 0.0343534066     1     1     6     7
 -0.1415349459     1     1     6     8
 -0.0044668283     1     1     6     9
 -0.0532431474     1     1     6    10
 0.0831267382     1     1     6    12
 -0.0992340691     1     1     6    13
 -0.0816904453     1     1     6    16
 0.0790251782     1     1     7     2
 0.1374397694     1     1     7     3
 0.0529392762     1     1     7     4
 0.0343534066     1     1     7     6
 0.3125283523     1     1     7     7
 -0.0502259868     1     1     7     8
 0.0480575184     1     1     7     9
 0.0891615186     1     1     7    10
 0.0046891584     1     1     7    12
 -0.1292939087     1     1     7    13
 0.0158952757     1     1     7    16
 0.0321584689     1     1     8     2
 -0.0409572927     1     1     8     3
 -0.0919722626     1     1     8     4
 -0.1415349459     1     1     8     6
 -0.0502259868     1     1     8     7
 0.3137759560     1     1     8     8
 -0.0120060191     1     1     8     9
 0.0150357977     1     1     8    10
 -0.0184506744     1     1     8    12
 0.0431562292     1     1     8    13
 0.0277315452     1     1     8    16
 0.0673114242     1     1     9     2
 0.0025551945     1     1     9     3
 0.0459540352     1     1     9     4
 -0.0044668283     1     1     9     6
 0.0480575184     1     1     9     7
 -0.0120060191     1     1     9     8
 0.3600326434     1     1     9     9
 0.0189140975     1     1     9    10
 -0.0063012556     1     1     9    12
 -0.0483496480     1     1     9    13
 -0.0053602613     1     1     9    16
 0.0315965534     1     1    10     2
 0.2011798535     1     1    10     3
 -0.1571887298     1     1    10     4
 -0.0532431474     1     1    10     6
 0.0891615186     1     1    10     7
 0.0150357977     1     1    10     8
 0.0189140975     1     1    10     9
 0.4917863100     1     1    10    10
 -0.0242738102     1     1    10    12
 -0.0150060560     1     1    10    13
 0.0087333370     1     1    10    16
 0.2282722629     1     1    11     5
 0.4312697548     1     1    11    11
 0.1068194411     1     1    11    14
 0.0389484719     1     1    11    15
 -0.0584489564     1     1    12     2
 0.0387627471     1     1    12     3
 0.0576493689     1     1    12     4
 0.0831267382     1     1    12     6
 0.0046891584     1     1    12     7
 -0.0184506744     1     1    12     8
 -0.0063012556     1     1    12     9
 -0.0242738102     1     1    12    10
 0.3591595716     1     1    12    12
 -0.0357714594     1     1    12    13
 -0.0523627525     1     1    12    16
 -0.0825230851     1     1    13     2
 -0.1267839154     1     1    13     3
 -0.1526265712     1     1    13     4
 -0.0992340691     1     1    13     6
 -0.1292939087     1     1    13     7
 0.0431562292     1     1    13     8
 -0.0483496480     1     1    13     9
 -0.0150060560     1     1    13    10
 -0.0357714594     1     1    13    12
 0.4727959036     1     1    13    13
 0.0135862522     1     1    13    16
 0.1924958959     1     1    14     5
 0.1068194411     1     1    14    11
 0.4273222994     1     1    14    14
 0.0065735234     1     1    14    15
 0.0543845450     1     1    15     5
 0.0389484719     1     1    15    11
 0.0065735234     1     1    15    14
 0.3497184931     1     1    15    15
 0.0972383880     1     1    16     2
 -0.0267520427     1     1    16     3
 -0.0274088236     1     1    16     4
 -0.0816904453     1     1    16     6
 0.0158952757     1     1    16     7
 0.0277315452     1     1    16     8
 -0.0053602613     1     1    16     9
 0.0087333370     1     1    16    10
 -0.0523627525     1     1    16    12
 0.0135862522     1     1    16    13
 0.3584757351     1     1    16    16
 -0.9973575756     1     2     2     1
 -0.0055630392     1     2     2     3
 0.0020012912     1     2     2     4
 -0.0001365242     1     2     2     6
 -0.0018491784     1     2     2     7
 0.0002478461     1     2     2     8
 -0.0002184120     1     2     2     9
 -0.0044279687     1     2     2    10
 -0.0001443500     1     2     2    12
 0.0019070042     1     2     2    13
 0.0000690159     1     2     2    16
 0.0404203011     1     2     3     1
 -0.0322473650     1     2     3     3
 0.0047961764     1     2     3     4
 -0.0042539505     1     2     3     6
 -0.0104705602     1     2     3     7
 0.0033359326     1     2     3     8
 -0.0025291001     1     2     3     9
 -0.0178851453     1     2     3    10
 -0.0021416223     1     2     3    12
 0.0122108153     1     2     3    13
 0.0017172281     1     2     3    16
 -0.0681568502     1     2     4     1
 0.0042181493     1     2     4     3
 -0.0290947452     1     2     4     4
 -0.0149749273     1     2     4     6
 -0.0025948115     1     2     4     7
 0.0078634546     1     2     4     8
 -0.0025838134     1     2     4     9
 0.0124407930     1     2     4    10
 -0.0062288518     1     2     4    12
 0.0115523152     1     2     4    13
 0.0043764148     1     2     4    16
 -0.0429174112     1     2     5     5
 -0.0186846898     1     2     5    11
 -0.0168477371     1     2     5    14
 -0.0042173875     1     2     5    15
 0.1089502702     1     2     6     1
 -0.0028989237     1     2     6     3
 -0.0129669708     1     2     6     4
 -0.0097924047     1     2     6     6
 -0.0035019253     1     2     6     7
 0.0053455507     1     2     6     8
 -0.0017427663     1     2     6     9
 0.0037989476     1     2     6    10
 -0.0040577967     1     2     6    12
 0.0088999383     1     2     6    13
 0.0031150520     1     2     6    16
 -0.0790251782     1     2     7     1
 -0.0087512517     1     2     7     3
 -0.0018649122     1     2     7     4
 -0.0036311545     1     2     7     6
 -0.0037669536     1     2     7     7
 0.0022652272     1     2     7     8
 -0.0011622236     1     2     7     9
 -0.0042631305     1     2     7    10
 -0.0014962536     1     2     7    12
 0.0058254593     1     2     7    13
 0.0011579129     1     2     7    16
 -0.0321584689     1     2     8     1
 0.0023371583     1     2     8     3
 0.0064497519     1     2     8     4
 0.0051235035     1     2     8     6
 0.0021009166     1     2     8     7
 -0.0029571233     1     2     8     8
 0.0011104050     1     2     8     9
 -0.0015162925     1     2     8    10
 0.0021293432     1     2     8    12
 -0.0049606480     1     2     8    13
 -0.0017342102     1     2     8    16
 -0.0673114242     1     2     9     1
 -0.0020131277     1     2     9     3
 -0.0017761366     1     2     9     4
 -0.0014876933     1     2     9     6
 -0.0010762465     1     2     9     7
 0.0010169867     1     2     9     8
 -0.0005356995     1     2     9     9
 0.0000827932     1     2     9    10
 -0.0005226465     1     2     9    12
 0.0017646402     1     2     9    13
 0.0003244876     1     2     9    16
 -0.0315965534     1     2    10     1
 -0.0133153936     1     2    10     3
 0.0098586689     1     2    10     4
 0.0028960703     1     2    10     6
 -0.0036051594     1     2    10     7
 -0.0011936174     1     2    10     8
 0.0002800155     1     2    10     9
 -0.0122016331     1     2    10    10
 0.0007081669     1     2    10    12
 0.0013917445     1     2    10    13
 -0.0004569416     1     2    10    16
 -0.0142009307     1     2    11     5
 -0.0079352980     1     2    11    11
 -0.0068308048     1     2    11    14
 -0.0018774897     1     2    11    15
 0.0584489564     1     2    12     1
 -0.0012870518     1     2    12     3
 -0.0045058781     1     2    12     4
 -0.0034464306     1     2    12     6
 -0.0012193608     1     2    12     7
 0.0018809651     1     2    12     8
 -0.0005092408     1     2    12     9
 0.0007997277     1     2    12    10
 -0.0014252222     1     2    12    12
 0.0030451996     1     2    12    13
 0.0008347873     1     2    12    16
 0.0825230851     1     2    13     1
 0.0091971186     1     2    13     3
 0.0082292727     1     2    13     4
 0.0080092925     1     2    13     6
 0.0052830052     1     2    13     7
 -0.0046690275     1     2    13     8
 0.0017615197     1     2    13     9
 0.0017950545     1     2    13    10
 0.0032632036     1     2    13    12
 -0.0096942678     1     2    13    13
 -0.0023138949     1     2    13    16
 -0.0123132224     1     2    14     5
 -0.0065408706     1     2    14    11
 -0.0056259108     1     2    14    14
 -0.0018704119     1     2    14    15
 -0.0034629602     1     2    15     5
 -0.0020288017     1     2    15    11
 -0.0020737707     1     2    15    14
 -0.0004188307     1     2    15    15
 -0.0972383880     1     2    16     1
 0.0004809461     1     2    16     3
 0.0032509596     1     2    16     4
 0.0025796485     1     2    16     6
 0.0007248783     1     2    16     7
 -0.0014831928     1     2    16     8
 0.0002761486     1     2    16     9
 -0.0010028929     1     2    16    10
 0.0007894338     1     2    16    12
 -0.0018809885     1     2    16    13
 -0.0007476216     1     2    16    16
 0.0404203011     1     3     2     1
 0.0055630392     1     3     2     2
 0.0005842459     1     3     2     4
 -0.0011876325     1     3     2     6
 -0.0011115566     1     3     2     7
 0.0008518292     1     3     2     8
 -0.0003881344     1     3     2     9
 -0.0036329272     1     3     2    10
 -0.0007418714     1     3     2    12
 0.0023522101     1     3     2    13
 0.0011944487     1     3     2    16
 -0.8765798827     1     3     3     1
 0.0322473650     1     3     3     2
 0.0045011089     1     3     3     4
 -0.0037669532     1     3     3     6
 0.0038705838     1     3     3     7
 0.0010903237     1     3     3     8
 0.0003716399     1     3     3     9
 0.0003029948     1     3     3    10
 -0.0022430989     1     3     3    12
 -0.0054648347     1     3     3    13
 0.0058793709     1     3     3    16
 0.0802345803     1     3     4     1
 -0.0042181493     1     3     4     2
 0.0058974745     1     3     4     4
 0.0055555656     1     3     4     6
 0.0009244116     1     3     4     7
 -0.0038746621     1     3     4     8
 0.0000458050     1     3     4     9
 -0.0020692568     1     3     4    10
 -0.0002127505     1     3     4    12
 -0.0024877870     1     3     4    13
 -0.0016753011     1     3     4    16
 0.0099746139     1     3     5     5
 0.0050170424     1     3     5    11
 0.0015956283     1     3     5    14
 0.0033759788     1     3     5    15
 -0.0814499984     1     3     6     1
 0.0028989237     1     3     6     2
 0.0036816756     1     3     6     4
 0.0008981407     1     3     6     6
 0.0000377397     1     3     6     7
 -0.0010453708     1     3     6     8
 0.0007734438     1     3     6     9
 -0.0017025852     1     3     6    10
 -0.0005496684     1     3     6    12
 -0.0011556046     1     3     6    13
 0.0007854462     1     3     6    16
 -0.1374397694     1     3     7     1
 0.0087512517     1     3     7     2
 0.0021363755     1     3     7     4
 -0.0018915655     1     3     7     6
 0.0036214471     1     3     7     7
 0.0002726028     1     3     7     8
 0.0012322913     1     3     7     9
 0.0019028323     1     3     7    10
 -0.0005500982     1     3     7    12
 -0.0030899676     1     3     7    13
 0.0022166981     1     3     7    16
 0.0409572927     1     3     8     1
 -0.0023371583     1     3     8     2
 -0.0020111616     1     3     8     4
 -0.0001228440     1     3     8     6
 -0.0004262197     1     3     8     7
 -0.0006827106     1     3     8     8
 0.0001973718     1     3     8     9
 -0.0002197808     1     3     8    10
 0.0006629302     1     3     8    12
 0.0006427607     1     3     8    13
 -0.0014730670     1     3     8    16
 -0.0025551945     1     3     9     1
 0.0020131277     1     3     9     2
 0.0004344942     1     3     9     4
 0.0005520694     1     3     9     6
 0.0015338247     1     3     9     7
 0.0001463582     1     3     9     8
 0.0005428625     1     3     9     9
 0.0037851073     1     3     9    10
 0.0002393712     1     3     9    12
 -0.0035077709     1     3     9    13
 -0.0004857696     1     3     9    16
 -0.2011798535     1     3    10     1
 0.0133153936     1     3    10     2
 0.0002782328     1     3    10     4
 -0.0046294127     1     3    10     6
 0.0036720286     1     3    10     7
 0.0012829070     1     3    10     8
 0.0038369462     1     3    10     9
 0.0037552434     1     3    10    10
 -0.0032396426     1     3    10    12
 -0.0032712092     1     3    10    13
 0.0040488884     1     3    10    16
 0.0031583794     1     3    11     5
 0.0004328383     1     3    11    11
 0.0015697636     1     3    11    14
 0.0007045192     1     3    11    15
 -0.0387627471     1     3    12     1
 0.0012870518     1     3    12     2
 0.0011057608     1     3    12     4
 0.0006921001     1     3    12     6
 0.0008095105     1     3    12     7
 -0.0004050415     1     3    12     8
 0.0005962216     1     3    12     9
 -0.0024550058     1     3    12    10
 0.0004785921     1     3    12    12
 -0.0017730199     1     3    12    13
 -0.0018675730     1     3    12    16
 0.1267839154     1     3    13     1
 -0.0091971186     1     3    13     2
 -0.0037975801     1     3    13     4
 0.0008188309     1     3    13     6
 -0.0030044736     1     3    13     7
 0.0003057375     1     3    13     8
 -0.0031125565     1     3    13     9
 -0.0008206451     1     3    13    10
 0.0003692716     1     3    13    12
 0.0049438325     1     3    13    13
 -0.0017817639     1     3    13    16
 0.0032003614     1     3    14     5
 0.0030925981     1     3    14    11
 0.0036995892     1     3    14    14
 -0.0012814983     1     3    14    15
 0.0006206580     1     3    15     5
 -0.0003684133     1     3    15    11
 -0.0025899206     1     3    15    14
 0.0009342806     1     3    15    15
 0.0267520427     1     3    16     1
 -0.0004809461     1     3    16     2
 -0.0011503857     1     3    16     4
 -0.0001683562     1     3    16     6
 -0.0000802311     1     3    16     7
 -0.0005157351     1     3    16     8
 -0.0010049906     1     3    16     9
 0.0007251924     1     3    16    10
 -0.0019357863     1     3    16    12
 0.0010554181     1     3    16    13
 0.0010254736     1     3    16    16
 -0.0681568502     1     4     2     1
 -0.0020012912     1     4     2     2
 -0.0005842459     1     4     2     3
 -0.0010887199     1     4     2     6
 -0.0006062545     1     4     2     7
 0.0009509156     1     4     2     8
 -0.0006596722     1     4     2     9
 0.0018794866     1     4     2    10
 -0.0013921509     1     4     2    12
 0.0027375799     1     4     2    13
 0.0008846307     1     4     2    16
 0.0802345803     1     4     3     1
 -0.0047961764     1     4     3     2
 -0.0045011089     1     4     3     3
 0.0016810186     1     4     3     6
 -0.0013212921     1     4     3     7
 -0.0017594492     1     4     3     8
 -0.0003257163     1     4     3     9
 -0.0023499821     1     4     3    10
 -0.0013684223     1     4     3    12
 0.0015635905     1     4     3    13
 -0.0004743668     1     4     3    16
 -0.8149279149     1     4     4     1
 0.0290947452     1     4     4     2
 -0.0058974745     1     4     4     3
 -0.0054713213     1     4     4     6
 0.0029574756     1     4     4     7
 0.0011228477     1     4     4     8
 0.0048445320     1     4     4     9
 0.0022725743     1     4     4    10
 -0.0021057357     1     4     4    12
 -0.0014912887     1     4     4    13
 0.0047014150     1     4     4    16
 -0.0075557975     1     4     5     5
 -0.0022856118     1     4     5    11
 -0.0034893687     1     4     5    14
 -0.0026983365     1     4     5    15
 -0.2208751294     1     4     6     1
 0.0129669708     1     4     6     2
 -0.0036816756     1     4     6     3
 -0.0064312467     1     4     6     6
 0.0003608699     1     4     6     7
 0.0024468678     1     4     6     8
 0.0019993917     1     4     6     9
 0.0016008534     1     4     6    10
 -0.0026797833     1     4     6    12
 0.0012653197     1     4     6    13
 0.0030396456     1     4     6    16
 -0.0529392762     1     4     7     1
 0.0018649122     1     4     7     2
 -0.0021363755     1     4     7     3
 -0.0012655361     1     4     7     6
 -0.0008162167     1     4     7     7
 0.0006096999     1     4     7     8
 0.0004080658     1     4     7     9
 -0.0015306263     1     4     7    10
 -0.0005047843     1     4     7    12
 0.0004390062     1     4     7    13
 0.0001288699     1     4     7    16
 0.0919722626     1     4     8     1
 -0.0064497519     1     4     8     2
 0.0020111616     1     4     8     3
 0.0035990808     1     4     8     6
 0.0003127929     1     4     8     7
 -0.0032580422     1     4     8     8
 -0.0014045194     1     4     8     9
 0.0000657787     1     4     8    10
 0.0019775013     1     4     8    12
 -0.0012195423     1     4     8    13
 -0.0016702372     1     4     8    16
 -0.0459540352     1     4     9     1
 0.0017761366     1     4     9     2
 -0.0004344942     1     4     9     3
 -0.0009926118     1     4     9     6
 0.0001902773     1     4     9     7
 -0.0000586386     1     4     9     8
 -0.0008503422     1     4     9     9
 0.0002313466     1     4     9    10
 -0.0018415879     1     4     9    12
 0.0005673139     1     4     9    13
 -0.0004154486     1     4     9    16
 0.1571887298     1     4    10     1
 -0.0098586689     1     4    10     2
 -0.0002782328     1     4    10     3
 0.0034238606     1     4    10     6
 -0.0028982795     1     4    10     7
 -0.0007116396     1     4    10     8
 -0.0020243398     1     4    10     9
 -0.0016149770     1     4    10    10
 0.0020181425     1     4    10    12
 0.0035884073     1     4    10    13
 -0.0030909763     1     4    10    16
 -0.0032165820     1     4    11     5
 -0.0037182647     1     4    11    11
 -0.0008112961     1     4    11    14
 0.0003088564     1     4    11    15
 -0.0576493689     1     4    12     1
 0.0045058781     1     4    12     2
 -0.0011057608     1     4    12     3
 -0.0022801423     1     4    12     6
 0.0010356126     1     4    12     7
 0.0011992187     1     4    12     8
 -0.0004529246     1     4    12     9
 0.0026235310     1     4    12    10
 -0.0017453394     1     4    12    12
 -0.0005338702     1     4    12    13
 0.0013618250     1     4    12    16
 0.1526265712     1     4    13     1
 -0.0082292727     1     4    13     2
 0.0037975801     1     4    13     3
 0.0035700991     1     4    13     6
 -0.0008818519     1     4    13     7
 -0.0011799499     1     4    13     8
 -0.0013834818     1     4    13     9
 0.0018095436     1     4    13    10
 0.0014889402     1     4    13    12
 0.0014208952     1     4    13    13
 -0.0034693916     1     4    13    16
 -0.0021611207     1     4    14     5
 0.0001998075     1     4    14    11
 -0.0016468942     1     4    14    14
 -0.0001712341     1     4    14    15
 -0.0004023660     1     4    15     5
 0.0014790904     1     4    15    11
 0.0006118130     1     4    15    14
 -0.0001553951     1     4    15    15
 0.0274088236     1     4    16     1
 -0.0032509596     1     4    16     2
 0.0011503857     1     4    16     3
 0.0013973880     1     4    16     6
 -0.0007655204     1     4    16     7
 -0.0004452719     1     4    16     8
 -0.0015716593     1     4    16     9
 -0.0014358382     1     4    16    10
 0.0008073521     1     4    16    12
 -0.0013671722     1     4    16    13
 -0.0018855331     1     4    16    16
 -0.0034568694     1     5     2    11
 -0.0036677104     1     5     2    14
 -0.0005123362     1     5     2    15
 0.0017077644     1     5     3    11
 -0.0018399594     1     5     3    14
 0.0027295948     1     5     3    15
 0.0011714601     1     5     4    11
 -0.0012138085     1     5     4    14
 -0.0022570946     1     5     4    15
 -1.0104758772     1     5     5     1
 0.0429174112     1     5     5     2
 -0.0099746139     1     5     5     3
 0.0075557975     1     5     5     4
 -0.0080378435     1     5     5     6
 0.0039062567     1     5     5     7
 0.0036684102     1     5     5     8
 0.0072166488     1     5     5     9
 -0.0004553906     1     5     5    10
 -0.0061398265     1     5     5    12
 -0.0064905383     1     5     5    13
 0.0065194692     1     5     5    16
 -0.0006729907     1     5     6    11
 -0.0009329377     1     5     6    14
 -0.0004190898     1     5     6    15
 0.0009687863     1     5     7    11
 0.0010413630     1     5     7    14
 0.0003920810     1     5     7    15
 -0.0009160340     1     5     8    11
 -0.0002826395     1     5     8    14
 -0.0004980093     1     5     8    15
 -0.0005585814     1     5     9    11
 -0.0008073926     1     5     9    14
 -0.0003707090     1     5     9    15
 -0.0003037054     1     5    10    11
 -0.0004369392     1     5    10    14
 -0.0003535056     1     5    10    15
 -0.2282722629     1     5    11     1
 0.0142009307     1     5    11     2
 -0.0031583794     1     5    11     3
 0.0032165820     1     5    11     4
 -0.0050129441     1     5    11     6
 0.0023152390     1     5    11     7
 0.0011599048     1     5    11     8
 0.0025103588     1     5    11     9
 -0.0003921588     1     5    11    10
 -0.0026047563     1     5    11    12
 -0.0019686947     1     5    11    13
 0.0047353569     1     5    11    16
 0.0004505827     1     5    12    11
 0.0003778877     1     5    12    14
 -0.0002548948     1     5    12    15
 0.0001084410     1     5    13    11
 0.0000351079     1     5    13    14
 -0.0000483810     1     5    13    15
 -0.1924958959     1     5    14     1
 0.0123132224     1     5    14     2
 -0.0032003614     1     5    14     3
 0.0021611207     1     5    14     4
 -0.0033441361     1     5    14     6
 0.0035139835     1     5    14     7
 0.0006855476     1     5    14     8
 0.0023058874     1     5    14     9
 0.0004322842     1     5    14    10
 -0.0017162364     1     5    14    12
 -0.0038729555     1     5    14    13
 0.0042197820     1     5    14    16
 -0.0543845450     1     5    15     1
 0.0034629602     1     5    15     2
 -0.0006206580     1     5    15     3
 0.0004023660     1     5    15     4
 -0.0006481206     1     5    15     6
 0.0002264204     1     5    15     7
 -0.0003586532     1     5    15     8
 0.0004062754     1     5    15     9
 -0.0023196280     1     5    15    10
 -0.0007121129     1     5    15    12
 -0.0005604022     1     5    15    13
 0.0013396593     1     5    15    16
 0.0016578905     1     5    16    11
 0.0018869589     1     5    16    14
 0.0008439320     1     5    16    15
 0.1089502702     1     6     2     1
 0.0001365242     1     6     2     2
 0.0011876325     1     6     2     3
 0.0010887199     1     6     2     4
 0.0001315636     1     6     2     7
 0.0002158677     1     6     2     8
 -0.0002383925     1     6     2     9
 0.0009204173     1     6     2    10
 -0.0005998775     1     6     2    12
 0.0008455192     1     6     2    13
 0.0005357287     1     6     2    16
 -0.0814499984     1     6     3     1
 0.0042539505     1     6     3     2
 0.0037669532     1     6     3     3
 -0.0016810186     1     6     3     4
 0.0019258439     1     6     3     7
 -0.0009302790     1     6     3     8
 0.0002282269     1     6     3     9
 0.0029379114     1     6     3    10
 -0.0012557206     1     6     3    12
 -0.0019631188     1     6     3    13
 0.0009640070     1     6     3    16
 -0.2208751294     1     6     4     1
 0.0149749273     1     6     4     2
 -0.0055555656     1     6     4     3
 0.0054713213     1     6     4     4
 0.0016290708     1     6     4     7
 -0.0011847541     1     6     4     8
 0.0030143011     1     6     4     9
 -0.0018697522     1     6     4    10
 -0.0004020694     1     6     4    12
 -0.0023156893     1     6     4    13
 0.0016702548     1     6     4    16
 0.0080378435     1     6     5     5
 0.0043197022     1     6     5    11
 0.0023731692     1     6     5    14
 0.0002147409     1     6     5    15
 -0.4513448501     1     6     6     1
 0.0097924047     1     6     6     2
 -0.0008981407     1     6     6     3
 0.0064312467     1     6     6     4
 0.0017055619     1     6     6     7
 -0.0007561793     1     6     6     8
 0.0021008716     1     6     6     9
 -0.0007171633     1     6     6    10
 -0.0002589971     1     6     6    12
 -0.0030731757     1     6     6    13
 0.0009600629     1     6     6    16
 -0.0343534066     1     6     7     1
 0.0036311545     1     6     7     2
 0.0018915655     1     6     7     3
 0.0012655361     1     6     7     4
 0.0016258792     1     6     7     7
 -0.0003094016     1     6     7     8
 0.0009047991     1     6     7     9
 0.0009674781     1     6     7    10
 0.0000644744     1     6     7    12
 -0.0023806181     1     6     7    13
 0.0002444257     1     6     7    16
 0.1415349459     1     6     8     1
 -0.0051235035     1     6     8     2
 0.0001228440     1     6     8     3
 -0.0035990808     1     6     8     4
 -0.0008617556     1     6     8     7
 -0.0008343765     1     6     8     8
 -0.0012484689     1     6     8     9
 0.0005486126     1     6     8    10
 0.0004431867     1     6     8    12
 0.0015997432     1     6     8    13
 -0.0006908484     1     6     8    16
 0.0044668283     1     6     9     1
 0.0014876933     1     6     9     2
 -0.0005520694     1     6     9     3
 0.0009926118     1     6     9     4
 0.0004574398     1     6     9     7
 -0.0002531694     1     6     9     8
 -0.0003016913     1     6     9     9
 0.0003755313     1     6     9    10
 -0.0008390536     1     6     9    12
 -0.0006843148     1     6     9    13
 -0.0004172874     1     6     9    16
 0.0532431474     1     6    10     1
 -0.0028960703     1     6    10     2
 0.0046294127     1     6    10     3
 -0.0034238606     1     6    10     4
 0.0003437056     1     6    10     7
 0.0002470994     1     6    10     8
 -0.0003593809     1     6    10     9
 0.0037608537     1     6    10    10
 0.0001926365     1     6    10    12
 0.0008137214     1     6    10    13
 -0.0006946289     1     6    10    16
 0.0050129441     1     6    11     5
 0.0009646618     1     6    11    11
 0.0024730318     1     6    11    14
 0.0010355992     1     6    11    15
 -0.0831267382     1     6    12     1
 0.0034464306     1     6    12     2
 -0.0006921001     1     6    12     3
 0.0022801423     1     6    12     4
 0.0011033112     1     6    12     7
 -0.0000398433     1     6    12     8
 0.0001030152     1     6    12     9
 0.0003174340     1     6    12    10
 -0.0004599846     1     6    12    12
 -0.0017080285     1     6    12    13
 0.0001253655     1     6    12    16
 0.0992340691     1     6    13     1
 -0.0080092925     1     6    13     2
 -0.0008188309     1     6    13     3
 -0.0035700991     1     6    13     4
 -0.0028313369     1     6    13     7
 0.0007210192     1     6    13     8
 -0.0020713330     1     6    13     9
 0.0001193043     1     6    13    10
 0.0000382679     1     6    13    12
 0.0048374838     1     6    13    13
 -0.0017840469     1     6    13    16
 0.0033441361     1     6    14     5
 0.0026354228     1     6    14    11
 0.0014617348     1     6    14    14
 0.0001431681     1     6    14    15
 0.0006481206     1     6    15     5
 0.0011557154     1     6    15    11
 0.0002075532     1     6    15    14
 0.0001743274     1     6    15    15
 0.0816904453     1     6    16     1
 -0.0025796485     1     6    16     2
 0.0001683562     1     6    16     3
 -0.0013973880     1     6    16     4
 -0.0008643729     1     6    16     7
 0.0000939017     1     6    16     8
 -0.0012788140     1     6    16     9
 -0.0005728066     1     6    16    10
 -0.0002078345     1     6    16    12
 0.0002924063     1     6    16    13
 -0.0006671541     1     6    16    16
 -0.0790251782     1     7     2     1
 0.0018491784     1     7     2     2
 0.0011115566     1     7     2     3
 0.0006062545     1     7     2     4
 -0.0001315636     1     7     2     6
 0.0001572106     1     7     2     8
 -0.0000856950     1     7     2     9
 -0.0006621436     1     7     2    10
 -0.0002591730     1     7     2    12
 0.0005225361     1     7     2    13
 0.0004165267     1     7     2    16