&FCI NORB= 14,NELEC= 10,MS2=0,
 ORBSYM=1,1,1,1,1,1,1,1,1,1,1,1,1,1
 ISYM=1,
&END
 0.9834565723     1     1     2     2
 0.0686179041     1     1     2     4
 -0.1485920256     1     1     2     6
 -0.1185789710     1     1     2     9
 0.0399818012     1     1     2    10
 -0.0694047475     1     1     2    12
 0.8664225663     1     1     3     3
 0.1791718440     1     1     3     7
 0.1072958105     1     1     3     8
 0.2529971933     1     1     3    13
 0.0686179041     1     1     4     2
 0.9522072506     1     1     4     4
 0.0808083356     1     1     4     6
 0.0638762261     1     1     4     9
 -0.2687834712     1     1     4    10
 0.0403887468     1     1     4    12
 1.0023741670     1     1     5     5
 -0.3468792022     1     1     5    11
 -0.1485920256     1     1     6     2
 0.0808083356     1     1     6     4
 0.3479802620     1     1     6     6
 0.1073027762     1     1     6     9
 -0.0899287252     1     1     6    10
 0.0572103530     1     1     6    12
 0.1791718440     1     1     7     3
 0.3255063918     1     1     7     7
 0.0989875765     1     1     7     8
 0.1676471118     1     1     7    13
 0.1072958105     1     1     8     3
 0.0989875765     1     1     8     7
 0.4549737313     1     1     8     8
 0.0846162550     1     1     8    13
 -0.1185789710     1     1     9     2
 0.0638762261     1     1     9     4
 0.1073027762     1     1     9     6
 0.4548733323     1     1     9     9
 -0.0558808414     1     1     9    10
 0.0197460598     1     1     9    12
 0.0399818012     1     1    10     2
 -0.2687834712     1     1    10     4
 -0.0899287252     1     1    10     6
 -0.0558808414     1     1    10     9
 0.5360157957     1     1    10    10
 -0.0456816100     1     1    10    12
 -0.3468792022     1     1    11     5
 0.6618723234     1     1    11    11
 -0.0694047475     1     1    12     2
 0.0403887468     1     1    12     4
 0.0572103530     1     1    12     6
 0.0197460598     1     1    12     9
 -0.0456816100     1     1    12    10
 0.4318604465     1     1    12    12
 0.2529971933     1     1    13     3
 0.1676471118     1     1    13     7
 0.0846162550     1     1    13     8
 0.5460647552     1     1    13    13
 0.4177649236     1     1    14    14
 -0.9834565723     1     2     2     1
 -0.0069393717     1     2     2     4
 -0.0016610257     1     2     2     6
 -0.0019881755     1     2     2     9
 0.0056897791     1     2     2    10
 -0.0015040185     1     2     2    12
 0.0307054518     1     2     3     3
 0.0132210248     1     2     3     7
 0.0117276549     1     2     3     8
 0.0240521061     1     2     3    13
 -0.0686179041     1     2     4     1
 0.0359551687     1     2     4     4
 0.0073702448     1     2     4     6
 0.0079885196     1     2     4     9
 -0.0226383026     1     2     4    10
 0.0059817263     1     2     4    12
 0.0411020643     1     2     5     5
 -0.0293055261     1     2     5    11
 0.1485920256     1     2     6     1
 0.0072984229     1     2     6     4
 0.0017460004     1     2     6     6
 0.0021295209     1     2     6     9
 -0.0051866926     1     2     6    10
 0.0014485773     1     2     6    12
 0.0098867598     1     2     7     3
 0.0048778423     1     2     7     7
 0.0043083569     1     2     7     8
 0.0091545074     1     2     7    13
 0.0079075355     1     2     8     3
 0.0038250734     1     2     8     7
 0.0033936384     1     2     8     8
 0.0065633490     1     2     8    13
 0.1185789710     1     2     9     1
 0.0070552878     1     2     9     4
 0.0018627151     1     2     9     6
 0.0016842796     1     2     9     9
 -0.0052709127     1     2     9    10
 0.0014054343     1     2     9    12
 -0.0399818012     1     2    10     1
 -0.0171392768     1     2    10     4
 -0.0036894113     1     2    10     6
 -0.0043331569     1     2    10     9
 0.0133658931     1     2    10    10
 -0.0026702781     1     2    10    12
 -0.0218015761     1     2    11     5
 0.0189944562     1     2    11    11
 0.0694047475     1     2    12     1
 0.0043473935     1     2    12     4
 0.0009919282     1     2    12     6
 0.0011037579     1     2    12     9
 -0.0025176205     1     2    12    10
 0.0006522624     1     2    12    12
 0.0157886551     1     2    13     3
 0.0080821865     1     2    13     7
 0.0065435859     1     2    13     8
 0.0149724044     1     2    13    13
 -0.0003227334     1     2    14    14
 0.0025966200     1     3     2     7
 0.0032381550     1     3     2     8
 0.0070457858     1     3     2    13
 -0.8664225663     1     3     3     1
 -0.0307054518     1     3     3     2
 -0.0104576164     1     3     3     4
 0.0044884082     1     3     3     6
 0.0001980246     1     3     3     9
 0.0025193477     1     3     3    10
 0.0049527091     1     3     3    12
 -0.0013021005     1     3     4     7
 -0.0049839474     1     3     4     8
 -0.0002874379     1     3     4    13
 0.0043437611     1     3     5    14
 0.0021096042     1     3     6     7
 -0.0004170506     1     3     6     8
 0.0019235339     1     3     6    13
 -0.1791718440     1     3     7     1
 -0.0098867598     1     3     7     2
 -0.0035064817     1     3     7     4
 0.0045423683     1     3     7     6
 0.0025668612     1     3     7     9
 -0.0001678557     1     3     7    10
 0.0016709257     1     3     7    12
 -0.1072958105     1     3     8     1
 -0.0079075355     1     3     8     2
 -0.0025881249     1     3     8     4
 0.0027576287     1     3     8     6
 0.0046420181     1     3     8     9
 -0.0038543202     1     3     8    10
 0.0034869283     1     3     8    12
 0.0019890232     1     3     9     7
 0.0029060357     1     3     9     8
 0.0049806658     1     3     9    13
 0.0001973605     1     3    10     7
 -0.0005274041     1     3    10     8
 0.0012478906     1     3    10    13
 0.0007802328     1     3    11    14
 -0.0008361938     1     3    12     7
 0.0006294210     1     3    12     8
 -0.0013194170     1     3    12    13
 -0.2529971933     1     3    13     1
 -0.0157886551     1     3    13     2
 -0.0055040477     1     3    13     4
 0.0061588975     1     3    13     6
 0.0058062645     1     3    13     9
 0.0013780017     1     3    13    10
 0.0031037249     1     3    13    12
 -0.0005040793     1     3    14     5
 0.0045134503     1     3    14    11
 -0.0686179041     1     4     2     1
 0.0069393717     1     4     2     2
 -0.0004517719     1     4     2     6
 0.0004394203     1     4     2     9
 -0.0042053071     1     4     2    10
 0.0013216526     1     4     2    12
 0.0104576164     1     4     3     3
 0.0023838139     1     4     3     7
 -0.0023308889     1     4     3     8
 0.0056051859     1     4     3    13
 -0.9522072506     1     4     4     1
 -0.0359551687     1     4     4     2
 0.0092468756     1     4     4     6
 0.0096766699     1     4     4     9
 -0.0066959164     1     4     4    10
 0.0003914692     1     4     4    12
 0.0137433670     1     4     5     5
 -0.0093236526     1     4     5    11
 -0.0808083356     1     4     6     1
 -0.0072984229     1     4     6     2
 0.0041232652     1     4     6     6
 0.0029028414     1     4     6     9
 -0.0037829199     1     4     6    10
 0.0011365849     1     4     6    12
 0.0035064817     1     4     7     3
 0.0027527950     1     4     7     7
 0.0011680307     1     4     7     8
 0.0035450222     1     4     7    13
 0.0025881249     1     4     8     3
 0.0029059765     1     4     8     7
 0.0028486221     1     4     8     8
 0.0071948697     1     4     8    13
 -0.0638762261     1     4     9     1
 -0.0070552878     1     4     9     2
 0.0029902184     1     4     9     6
 0.0060154563     1     4     9     9
 -0.0019965395     1     4     9    10
 0.0007410302     1     4     9    12
 0.2687834712     1     4    10     1
 0.0171392768     1     4    10     2
 -0.0082892964     1     4    10     6
 -0.0066768246     1     4    10     9
 0.0028791931     1     4    10    10
 -0.0047466859     1     4    10    12
 -0.0076946777     1     4    11     5
 0.0064942901     1     4    11    11
 -0.0403887468     1     4    12     1
 -0.0043473935     1     4    12     2
 0.0026717841     1     4    12     6
 0.0023063921     1     4    12     9
 -0.0057782629     1     4    12    10
 0.0034563191     1     4    12    12
 0.0055040477     1     4    13     3
 0.0026223238     1     4    13     7
 0.0032513388     1     4    13     8
 0.0039425674     1     4    13    13
 0.0034837450     1     4    14    14
 -0.0059277132     1     5     2    11
 0.0049175507     1     5     3    14
 -0.0011450904     1     5     4    11
 -1.0023741670     1     5     5     1
 -0.0411020643     1     5     5     2
 -0.0137433670     1     5     5     4
 0.0088920460     1     5     5     6
 0.0118576668     1     5     5     9
 0.0029220649     1     5     5    10
 0.0065447712     1     5     5    12
 -0.0023236321     1     5     6    11
 0.0000341814     1     5     7    14
 0.0004794162     1     5     8    14
 0.0023461015     1     5     9    11
 0.0016405672     1     5    10    11
 0.3468792022     1     5    11     1
 0.0218015761     1     5    11     2
 0.0076946777     1     5    11     4
 -0.0089352314     1     5    11     6
 -0.0065308308     1     5    11     9
 -0.0000605853     1     5    11    10
 -0.0039555169     1     5    11    12
 0.0009389301     1     5    12    11
 0.0003143178     1     5    13    14
 0.0005040793     1     5    14     3
 -0.0018807556     1     5    14     7
 -0.0010803636     1     5    14     8
 -0.0031778714     1     5    14    13
 0.1485920256     1     6     2     1
 0.0016610257     1     6     2     2
 0.0004517719     1     6     2     4
 0.0002956947     1     6     2     9
 -0.0015176047     1     6     2    10
 0.0004740484     1     6     2    12
 -0.0044884082     1     6     3     3
 -0.0024374764     1     6     3     7
 -0.0032138543     1     6     3     8
 -0.0042987132     1     6     3    13
 -0.0808083356     1     6     4     1
 -0.0073702448     1     6     4     2
 -0.0092468756     1     6     4     4
 -0.0001182728     1     6     4     9
 0.0046233771     1     6     4    10
 -0.0015490187     1     6     4    12
 -0.0088920460     1     6     5     5
 0.0066123991     1     6     5    11
 -0.3479802620     1     6     6     1
 -0.0017460004     1     6     6     2
 -0.0041232652     1     6     6     4
 -0.0003822139     1     6     6     9
 0.0018970264     1     6     6    10
 -0.0004276491     1     6     6    12
 -0.0045423683     1     6     7     3
 -0.0017833584     1     6     7     7
 -0.0017628969     1     6     7     8
 -0.0036049672     1     6     7    13
 -0.0027576287     1     6     8     3
 -0.0008511725     1     6     8     7
 -0.0006167581     1     6     8     8
 -0.0010742326     1     6     8    13
 -0.1073027762     1     6     9     1
 -0.0018627151     1     6     9     2
 -0.0029902184     1     6     9     4
 0.0006923472     1     6     9     9
 0.0016035897     1     6     9    10
 -0.0003464428     1     6     9    12
 0.0899287252     1     6    10     1
 0.0036894113     1     6    10     2
 0.0082892964     1     6    10     4
 0.0005824393     1     6    10     9
 -0.0051578238     1     6    10    10
 0.0002390499     1     6    10    12
 0.0089352314     1     6    11     5
 -0.0068816011     1     6    11    11
 -0.0572103530     1     6    12     1
 -0.0009919282     1     6    12     2
 -0.0026717841     1     6    12     4
 -0.0001444160     1     6    12     9
 0.0003974662     1     6    12    10
 0.0003947842     1     6    12    12
 -0.0061588975     1     6    13     3
 -0.0028286682     1     6    13     7
 -0.0020960874     1     6    13     8
 -0.0053957894     1     6    13    13
 0.0008667806     1     6    14    14
 -0.0025966200     1     7     2     3
 0.0004853157     1     7     2     8
 0.0010279177     1     7     2    13
 -0.1791718440     1     7     3     1
 -0.0132210248     1     7     3     2
 -0.0023838139     1     7     3     4
 0.0024374764     1     7     3     6
 0.0005433628     1     7     3     9
 -0.0003170005     1     7     3    10
 0.0025185300     1     7     3    12
 0.0013021005     1     7     4     3
 -0.0017636039     1     7     4     8
 0.0009053465     1     7     4    13
 0.0019475051     1     7     5    14
 -0.0021096042     1     7     6     3
 -0.0009095321     1     7     6     8
 -0.0007708463     1     7     6    13
 -0.3255063918     1     7     7     1
 -0.0048778423     1     7     7     2
 -0.0027527950     1     7     7     4
 0.0017833584     1     7     7     6
 0.0009309489     1     7     7     9
 0.0006126021     1     7     7    10
 0.0005964063     1     7     7    12
 -0.0989875765     1     7     8     1
 -0.0038250734     1     7     8     2
 -0.0029059765     1     7     8     4
 0.0008511725     1     7     8     6
 0.0016199148     1     7     8     9
 -0.0005509747     1     7     8    10
 0.0012691583     1     7     8    12
 -0.0019890232     1     7     9     3
 0.0005465050     1     7     9     8
 0.0005967771     1     7     9    13
 -0.0001973605     1     7    10     3
 -0.0003019155     1     7    10     8
 0.0003779976     1     7    10    13
 0.0003334026     1     7    11    14
 0.0008361938     1     7    12     3
 0.0005656423     1     7    12     8
 0.0000713832     1     7    12    13
 -0.1676471118     1     7    13     1
 -0.0080821865     1     7    13     2
 -0.0026223238     1     7    13     4
 0.0028286682     1     7    13     6
 0.0026681049     1     7    13     9
 0.0005404178     1     7    13    10
 0.0014355287     1     7    13    12
 0.0018807556     1     7    14     5
 0.0003729166     1     7    14    11
 -0.0032381550     1     8     2     3
 -0.0004853157     1     8     2     7
 -0.0000183538     1     8     2    13
 -0.1072958105     1     8     3     1
 -0.0117276549     1     8     3     2
 0.0023308889     1     8     3     4
 0.0032138543     1     8     3     6
 0.0017571048     1     8     3     9
 -0.0033099541     1     8     3    10
 0.0028872483     1     8     3    12
 0.0049839474     1     8     4     3
 0.0017636039     1     8     4     7
 0.0039652697     1     8     4    13
 0.0015465345     1     8     5    14
 0.0004170506     1     8     6     3
 0.0009095321     1     8     6     7
 0.0010256491     1     8     6    13
 -0.0989875765     1     8     7     1
 -0.0043083569     1     8     7     2
 -0.0011680307     1     8     7     4
 0.0017628969     1     8     7     6
 0.0010756293     1     8     7     9
 -0.0002554379     1     8     7    10
 0.0007074931     1     8     7    12
 -0.4549737313     1     8     8     1
 -0.0033936384     1     8     8     2
 -0.0028486221     1     8     8     4
 0.0006167581     1     8     8     6
 0.0012557050     1     8     8     9
 -0.0002030003     1     8     8    10
 0.0009594479     1     8     8    12
 -0.0029060357     1     8     9     3
 -0.0005465050     1     8     9     7
 -0.0004840378     1     8     9    13
 0.0005274041     1     8    10     3
 0.0003019155     1     8    10     7
 0.0008306459     1     8    10    13
 0.0002357087     1     8    11    14
 -0.0006294210     1     8    12     3
 -0.0005656423     1     8    12     7
 -0.0009331866     1     8    12    13
 -0.0846162550     1     8    13     1
 -0.0065435859     1     8    13     2
 -0.0032513388     1     8    13     4
 0.0020960874     1     8    13     6
 0.0019256550     1     8    13     9
 0.0011561210     1     8    13    10
 0.0010397288     1     8    13    12
 0.0010803636     1     8    14     5
 0.0006293495     1     8    14    11
 0.1185789710     1     9     2     1
 0.0019881755     1     9     2     2
 -0.0004394203     1     9     2     4
 -0.0002956947     1     9     2     6
 -0.0009718905     1     9     2    10
 0.0003024954     1     9     2    12
 -0.0001980246     1     9     3     3
 -0.0005433628     1     9     3     7
 -0.0017571048     1     9     3     8
 -0.0008318139     1     9     3    13
 -0.0638762261     1     9     4     1
 -0.0079885196     1     9     4     2
 -0.0096766699     1     9     4     4
 0.0001182728     1     9     4     6
 0.0047610609     1     9     4    10
 -0.0015447251     1     9     4    12
 -0.0118576668     1     9     5     5
 0.0088671278     1     9     5    11
 -0.1073027762     1     9     6     1
 -0.0021295209     1     9     6     2
 -0.0029028414     1     9     6     4
 0.0003822139     1     9     6     6
 0.0010230901     1     9     6    10
 -0.0002018024     1     9     6    12
 -0.0025668612     1     9     7     3
 -0.0009309489     1     9     7     7
 -0.0010756293     1     9     7     8
 -0.0020685283     1     9     7    13
 -0.0046420181     1     9     8     3
 -0.0016199148     1     9     8     7
 -0.0012557050     1     9     8     8
 -0.0024073347     1     9     8    13
 -0.4548733323     1     9     9     1
 -0.0016842796     1     9     9     2
 -0.0060154563     1     9     9     4
 -0.0006923472     1     9     9     6
 0.0035690140     1     9     9    10
 -0.0008192703     1     9     9    12
 0.0558808414     1     9    10     1
 0.0043331569     1     9    10     2
 0.0066768246     1     9    10     4
 -0.0005824393     1     9    10     6
 -0.0040168338     1     9    10    10
 -0.0001054048     1     9    10    12
 0.0065308308     1     9    11     5
 -0.0051138962     1     9    11    11
 -0.0197460598     1     9    12     1
 -0.0011037579     1     9    12     2
 -0.0023063921     1     9    12     4
 0.0001444160     1     9    12     6
 0.0000744549     1     9    12    10
 0.0004913405     1     9    12    12
 -0.0058062645     1     9    13     3
 -0.0026681049     1     9    13     7
 -0.0019256550     1     9    13     8
 -0.0051031745     1     9    13    13
 0.0009013071     1     9    14    14
 -0.0399818012     1    10     2     1
 -0.0056897791     1    10     2     2
 0.0042053071     1    10     2     4
 0.0015176047     1    10     2     6
 0.0009718905     1    10     2     9
 -0.0001219351     1    10     2    12
 -0.0025193477     1    10     3     3
 0.0003170005     1    10     3     7
 0.0033099541     1    10     3     8
 -0.0002426617     1    10     3    13
 0.2687834712     1    10     4     1
 0.0226383026     1    10     4     2
 0.0066959164     1    10     4     4
 -0.0046233771     1    10     4     6
 -0.0047610609     1    10     4     9
 0.0009802397     1    10     4    12
 -0.0029220649     1    10     5     5
 0.0018325775     1    10     5    11
 0.0899287252     1    10     6     1
 0.0051866926     1    10     6     2
 0.0037829199     1    10     6     4
 -0.0018970264     1    10     6     6
 -0.0010230901     1    10     6     9
 -0.0001574211     1    10     6    12
 0.0001678557     1    10     7     3
 -0.0006126021     1    10     7     7
 0.0002554379     1    10     7     8
 -0.0001607557     1    10     7    13
 0.0038543202     1    10     8     3
 0.0005509747     1    10     8     7
 0.0002030003     1    10     8     8
 -0.0003211798     1    10     8    13
 0.0558808414     1    10     9     1
 0.0052709127     1    10     9     2
 0.0019965395     1    10     9     4
 -0.0016035897     1    10     9     6
 -0.0035690140     1    10     9     9
 -0.0001805058     1    10     9    12
 -0.5360157957     1    10    10     1
 -0.0133658931     1    10    10     2
 -0.0028791931     1    10    10     4
 0.0051578238     1    10    10     6
 0.0040168338     1    10    10     9
 0.0028476198     1    10    10    12
 0.0000605853     1    10    11     5
 -0.0001130887     1    10    11    11
 0.0456816100     1    10    12     1
 0.0025176205     1    10    12     2
 0.0057782629     1    10    12     4
 -0.0003974662     1    10    12     6
 -0.0000744549     1    10    12     9
 -0.0013265586     1    10    12    12
 -0.0013780017     1    10    13     3
 -0.0005404178     1    10    13     7
 -0.0011561210     1    10    13     8
 -0.0003993896     1    10    13    13
 -0.0023091773     1    10    14    14
 0.0059277132     1    11     2     5
 -0.0036807133     1    11     3    14
 0.0011450904     1    11     4     5
 0.3468792022     1    11     5     1
 0.0293055261     1    11     5     2
 0.0093236526     1    11     5     4
 -0.0066123991     1    11     5     6
 -0.0088671278     1    11     5     9
 -0.0018325775     1    11     5    10
 -0.0048773998     1    11     5    12
 0.0023236321     1    11     6     5
 -0.0000457917     1    11     7    14
 -0.0003942515     1    11     8    14
 -0.0023461015     1    11     9     5
 -0.0016405672     1    11    10     5
 -0.6618723234     1    11    11     1
 -0.0189944562     1    11    11     2
 -0.0064942901     1    11    11     4
 0.0068816011     1    11    11     6
 0.0051138962     1    11    11     9
 0.0001130887     1    11    11    10
 0.0030729825     1    11    11    12
 -0.0009389301     1    11    12     5
 -0.0002271521     1    11    13    14
 -0.0045134503     1    11    14     3
 -0.0003729166     1    11    14     7
 -0.0006293495     1    11    14     8
 -0.0007962614     1    11    14    13
 0.0694047475     1    12     2     1
 0.0015040185     1    12     2     2
 -0.0013216526     1    12     2     4
 -0.0004740484     1    12     2     6
 -0.0003024954     1    12     2     9
 0.0001219351     1    12     2    10
 -0.0049527091     1    12     3     3
 -0.0025185300     1    12     3     7
 -0.0028872483     1    12     3     8
 -0.0044581116     1    12     3    13
 -0.0403887468     1    12     4     1
 -0.0059817263     1    12     4     2
 -0.0003914692     1    12     4     4
 0.0015490187     1    12     4     6
 0.0015447251     1    12     4     9
 -0.0009802397     1    12     4    10
 -0.0065447712     1    12     5     5
 0.0048773998     1    12     5    11
 -0.0572103530     1    12     6     1
 -0.0014485773     1    12     6     2
 -0.0011365849     1    12     6     4
 0.0004276491     1    12     6     6
 0.0002018024     1    12     6     9
 0.0001574211     1    12     6    10
 -0.0016709257     1    12     7     3
 -0.0005964063     1    12     7     7
 -0.0007074931     1    12     7     8
 -0.0013712238     1    12     7    13
 -0.0034869283     1    12     8     3
 -0.0012691583     1    12     8     7
 -0.0009594479     1    12     8     8
 -0.0019732328     1    12     8    13
 -0.0197460598     1    12     9     1
 -0.0014054343     1    12     9     2
 -0.0007410302     1    12     9     4
 0.0003464428     1    12     9     6
 0.0008192703     1    12     9     9
 0.0001805058     1    12     9    10
 0.0456816100     1    12    10     1
 0.0026702781     1    12    10     2
 0.0047466859     1    12    10     4
 -0.0002390499     1    12    10     6
 0.0001054048     1    12    10     9
 -0.0028476198     1    12    10    10
 0.0039555169     1    12    11     5
 -0.0030729825     1    12    11    11
 -0.4318604465     1    12    12     1
 -0.0006522624     1    12    12     2
 -0.0034563191     1    12    12     4
 -0.0003947842     1    12    12     6
 -0.0004913405     1    12    12     9
 0.0013265586     1    12    12    10
 -0.0031037249     1    12    13     3
 -0.0014355287     1    12    13     7
 -0.0010397288     1    12    13     8
 -0.0027936314     1    12    13    13
 0.0005820052     1    12    14    14
 -0.0070457858     1    13     2     3
 -0.0010279177     1    13     2     7
 0.0000183538     1    13     2     8
 -0.2529971933     1    13     3     1
 -0.0240521061     1    13     3     2
 -0.0056051859     1    13     3     4
 0.0042987132     1    13     3     6
 0.0008318139     1    13     3     9
 0.0002426617     1    13     3    10
 0.0044581116     1    13     3    12
 0.0002874379     1    13     4     3
 -0.0009053465     1    13     4     7
 -0.0039652697     1    13     4     8
 0.0035438162     1    13     5    14
 -0.0019235339     1    13     6     3
 0.0007708463     1    13     6     7
 -0.0010256491     1    13     6     8
 -0.1676471118     1    13     7     1
 -0.0091545074     1    13     7     2
 -0.0035450222     1    13     7     4
 0.0036049672     1    13     7     6
 0.0020685283     1    13     7     9
 0.0001607557     1    13     7    10
 0.0013712238     1    13     7    12
 -0.0846162550     1    13     8     1
 -0.0065633490     1    13     8     2
 -0.0071948697     1    13     8     4
 0.0010742326     1    13     8     6
 0.0024073347     1    13     8     9
 0.0003211798     1    13     8    10
 0.0019732328     1    13     8    12
 -0.0049806658     1    13     9     3
 -0.0005967771     1    13     9     7
 0.0004840378     1    13     9     8
 -0.0012478906     1    13    10     3
 -0.0003779976     1    13    10     7
 -0.0008306459     1    13    10     8
 0.0005680959     1    13    11    14
 0.0013194170     1    13    12     3
 -0.0000713832     1    13    12     7
 0.0009331866     1    13    12     8
 -0.5460647552     1    13    13     1
 -0.0149724044     1    13    13     2
 -0.0039425674     1    13    13     4
 0.0053957894     1    13    13     6
 0.0051031745     1    13    13     9
 0.0003993896     1    13    13    10
 0.0027936314     1    13    13    12
 0.0031778714     1    13    14     5
 0.0007962614     1    13    14    11
 -0.0049175507     1    14     3     5
 0.0036807133     1    14     3    11
 -0.0043437611     1    14     5     3
 -0.0019475051     1    14     5     7
 -0.0015465345     1    14     5     8
 -0.0035438162     1    14     5    13
 -0.0000341814     1    14     7     5
 0.0000457917     1    14     7    11
 -0.0004794162     1    14     8     5
 0.0003942515     1    14     8    11
 -0.0007802328     1    14    11     3
 -0.0003334026     1    14    11     7
 -0.0002357087     1    14    11     8
 -0.0005680959     1    14    11    13
 -0.0003143178     1    14    13     5
 0.0002271521     1    14    13    11
 -0.4177649236     1    14    14     1
 0.0003227334     1    14    14     2
 -0.0034837450     1    14    14     4
 -0.0008667806     1    14    14     6
 -0.0009013071     1    14    14     9
 0.0023091773     1    14    14    10
 -0.0005820052     1    14    14    12
 -0.9834565723     2     1     1     2
 -0.0686179041     2     1     1     4
 0.1485920256     2     1     1     6
 0.1185789710     2     1     1     9
 -0.0399818012     2     1     1    10
 0.0694047475     2     1     1    12
 0.0307054518     2     1     3     3
 0.0098867598     2     1     3     7
 0.0079075355     2     1     3     8
 0.0157886551     2     1     3    13
 -0.0069393717     2     1     4     2
 0.0359551687     2     1     4     4
 0.0072984229     2     1     4     6
 0.0070552878     2     1     4     9
 -0.0171392768     2     1     4    10
 0.0043473935     2     1     4    12
 0.0411020643     2     1     5     5
 -0.0218015761     2     1     5    11
 -0.0016610257     2     1     6     2
 0.0073702448     2     1     6     4
 0.0017460004     2     1     6     6
 0.0018627151     2     1     6     9
 -0.0036894113     2     1     6    10
 0.0009919282     2     1     6    12
 0.0132210248     2     1     7     3
 0.0048778423     2     1     7     7
 0.0038250734     2     1     7     8
 0.0080821865     2     1     7    13
 0.0117276549     2     1     8     3
 0.0043083569     2     1     8     7
 0.0033936384     2     1     8     8
 0.0065435859     2     1     8    13
 -0.0019881755     2     1     9     2
 0.0079885196     2     1     9     4
 0.0021295209     2     1     9     6
 0.0016842796     2     1     9     9
 -0.0043331569     2     1     9    10
 0.0011037579     2     1     9    12
 0.0056897791     2     1    10     2
 -0.0226383026     2     1    10     4
 -0.0051866926     2     1    10     6
 -0.0052709127     2     1    10     9
 0.0133658931     2     1    10    10
 -0.0025176205     2     1    10    12
 -0.0293055261     2     1    11     5
 0.0189944562     2     1    11    11
 -0.0015040185     2     1    12     2
 0.0059817263     2     1    12     4
 0.0014485773     2     1    12     6
 0.0014054343     2     1    12     9
 -0.0026702781     2     1    12    10
 0.0006522624     2     1    12    12
 0.0240521061     2     1    13     3
 0.0091545074     2     1    13     7
 0.0065633490     2     1    13     8
 0.0149724044     2     1    13    13
 -0.0003227334     2     1    14    14
 0.9834565723     2     2     1     1
 0.0069393717     2     2     1     4
 0.0016610257     2     2     1     6
 0.0019881755     2     2     1     9
 -0.0056897791     2     2     1    10
 0.0015040185     2     2     1    12
 0.5272295104     2     2     3     3
 0.0718690118     2     2     3     7
 0.0232746664     2     2     3     8
 0.0887616796     2     2     3    13
 0.0069393717     2     2     4     1
 0.5515515167     2     2     4     4
 0.0347328750     2     2     4     6
 0.0216564677     2     2     4     9
 -0.1009438144     2     2     4    10
 0.0045930446     2     2     4    12
 0.5803750189     2     2     5     5
 -0.1282794467     2     2     5    11
 0.0016610257     2     2     6     1
 0.0347328750     2     2     6     4
 0.3006413552     2     2     6     6
 0.0574531267     2     2     6     9
 -0.0523101217     2     2     6    10
 0.0289901824     2     2     6    12
 0.0718690118     2     2     7     3
 0.2840927569     2     2     7     7
 0.0606292543     2     2     7     8
 0.0899712085     2     2     7    13
 0.0232746664     2     2     8     3
 0.0606292543     2     2     8     7
 0.4058939186     2     2     8     8
 0.0347784626     2     2     8    13
 0.0019881755     2     2     9     1
 0.0216564677     2     2     9     4
 0.0574531267     2     2     9     6
 0.4065771768     2     2     9     9
 -0.0144531311     2     2     9    10
 -0.0050277505     2     2     9    12
 -0.0056897791     2     2    10     1
 -0.1009438144     2     2    10     4
 -0.0523101217     2     2    10     6
 -0.0144531311     2     2    10     9