&FCI NORB=  8,NELEC= 10,MS2=0,
 ORBSYM=1,1,1,1,1,1,1,1
 ISYM=1,
&END
 0.9843345910     1     1     2     2
 -0.0663521220     1     1     2     4
 -0.1132583424     1     1     2     6
 0.8708702187     1     1     3     3
 0.1277019529     1     1     3     7
 -0.0658404620     1     1     3     8
 -0.0663521220     1     1     4     2
 0.9480706312     1     1     4     4
 -0.0561321218     1     1     4     6
 0.9922636651     1     1     5     5
 -0.1132583424     1     1     6     2
 -0.0561321218     1     1     6     4
 0.3158678461     1     1     6     6
 0.1277019529     1     1     7     3
 0.2841635153     1     1     7     7
 -0.0654010311     1     1     7     8
 -0.0658404620     1     1     8     3
 -0.0654010311     1     1     8     7
 0.3898706699     1     1     8     8
 -0.9843345910     1     2     2     1
 0.0070910107     1     2     2     4
 -0.0009937668     1     2     2     6
 0.0312312865     1     2     3     3
 0.0102452635     1     2     3     7
 -0.0083814695     1     2     3     8
 0.0663521220     1     2     4     1
 0.0359259597     1     2     4     4
 -0.0059508303     1     2     4     6
 0.0405924366     1     2     5     5
 0.1132583424     1     2     6     1
 -0.0054948625     1     2     6     4
 0.0014034249     1     2     6     6
 0.0072046495     1     2     7     3
 0.0033744830     1     2     7     7
 -0.0026573330     1     2     7     8
 -0.0053592908     1     2     8     3
 -0.0023357665     1     2     8     7
 0.0020122241     1     2     8     8
 0.0021565742     1     3     2     7
 -0.0024364500     1     3     2     8
 -0.8708702187     1     3     3     1
 -0.0312312865     1     3     3     2
 0.0105967793     1     3     3     4
 0.0040982340     1     3     3     6
 0.0009787143     1     3     4     7
 -0.0039592147     1     3     4     8
 0.0018472085     1     3     6     7
 0.0004142170     1     3     6     8
 -0.1277019529     1     3     7     1
 -0.0072046495     1     3     7     2
 0.0025799049     1     3     7     4
 0.0035092578     1     3     7     6
 0.0658404620     1     3     8     1
 0.0053592908     1     3     8     2
 -0.0017615755     1     3     8     4
 -0.0016737352     1     3     8     6
 0.0663521220     1     4     2     1
 -0.0070910107     1     4     2     2
 0.0001553860     1     4     2     6
 -0.0105967793     1     4     3     3
 -0.0017756160     1     4     3     7
 -0.0021591875     1     4     3     8
 -0.9480706312     1     4     4     1
 -0.0359259597     1     4     4     2
 0.0079657248     1     4     4     6
 -0.0135755808     1     4     5     5
 0.0561321218     1     4     6     1
 0.0054948625     1     4     6     2
 -0.0032078812     1     4     6     6
 -0.0025799049     1     4     7     3
 -0.0020716239     1     4     7     7
 0.0009354816     1     4     7     8
 0.0017615755     1     4     8     3
 0.0021487154     1     4     8     7
 -0.0012822200     1     4     8     8
 -0.9922636651     1     5     5     1
 -0.0405924366     1     5     5     2
 0.0135755808     1     5     5     4
 0.0076256172     1     5     5     6
 0.1132583424     1     6     2     1
 0.0009937668     1     6     2     2
 -0.0001553860     1     6     2     4
 -0.0040982340     1     6     3     3
 -0.0016036429     1     6     3     7
 0.0020875561     1     6     3     8
 0.0561321218     1     6     4     1
 0.0059508303     1     6     4     2
 -0.0079657248     1     6     4     4
 -0.0076256172     1     6     5     5
 -0.3158678461     1     6     6     1
 -0.0014034249     1     6     6     2
 0.0032078812     1     6     6     4
 -0.0035092578     1     6     7     3
 -0.0011561461     1     6     7     7
 0.0009954976     1     6     7     8
 0.0016737352     1     6     8     3
 0.0003698771     1     6     8     7
 -0.0003341044     1     6     8     8
 -0.0021565742     1     7     2     3
 -0.0002987217     1     7     2     8
 -0.1277019529     1     7     3     1
 -0.0102452635     1     7     3     2
 0.0017756160     1     7     3     4
 0.0016036429     1     7     3     6
 -0.0009787143     1     7     4     3
 -0.0011792107     1     7     4     8
 -0.0018472085     1     7     6     3
 0.0006248318     1     7     6     8
 -0.2841635153     1     7     7     1
 -0.0033744830     1     7     7     2
 0.0020716239     1     7     7     4
 0.0011561461     1     7     7     6
 0.0654010311     1     7     8     1
 0.0023357665     1     7     8     2
 -0.0021487154     1     7     8     4
 -0.0003698771     1     7     8     6
 0.0024364500     1     8     2     3
 0.0002987217     1     8     2     7
 0.0658404620     1     8     3     1
 0.0083814695     1     8     3     2
 0.0021591875     1     8     3     4
 -0.0020875561     1     8     3     6
 0.0039592147     1     8     4     3
 0.0011792107     1     8     4     7
 -0.0004142170     1     8     6     3
 -0.0006248318     1     8     6     7
 0.0654010311     1     8     7     1
 0.0026573330     1     8     7     2
 -0.0009354816     1     8     7     4
 -0.0009954976     1     8     7     6
 -0.3898706699     1     8     8     1
 -0.0020122241     1     8     8     2
 0.0012822200     1     8     8     4
 0.0003341044     1     8     8     6
 -0.9843345910     2     1     1     2
 0.0663521220     2     1     1     4
 0.1132583424     2     1     1     6
 0.0312312865     2     1     3     3
 0.0072046495     2     1     3     7
 -0.0053592908     2     1     3     8
 0.0070910107     2     1     4     2
 0.0359259597     2     1     4     4
 -0.0054948625     2     1     4     6
 0.0405924366     2     1     5     5
 -0.0009937668     2     1     6     2
 -0.0059508303     2     1     6     4
 0.0014034249     2     1     6     6
 0.0102452635     2     1     7     3
 0.0033744830     2     1     7     7
 -0.0023357665     2     1     7     8
 -0.0083814695     2     1     8     3
 -0.0026573330     2     1     8     7
 0.0020122241     2     1     8     8
 0.9843345910     2     2     1     1
 -0.0070910107     2     2     1     4
 0.0009937668     2     2     1     6
 0.5284671011     2     2     3     3
 0.0525306717     2     2     3     7
 -0.0106672960     2     2     3     8
 -0.0070910107     2     2     4     1
 0.5500033259     2     2     4     4
 -0.0234464116     2     2     4     6
 0.5761671445     2     2     5     5
 0.0009937668     2     2     6     1
 -0.0234464116     2     2     6     4
 0.2811847214     2     2     6     6
 0.0525306717     2     2     7     3
 0.2558215170     2     2     7     7
 -0.0430102487     2     2     7     8
 -0.0106672960     2     2     8     3
 -0.0430102487     2     2     8     7
 0.3580755958     2     2     8     8
 -0.0021565742     2     3     1     7
 0.0024364500     2     3     1     8
 -0.0312312865     2     3     3     1
 -0.5284671011     2     3     3     2
 0.0014388568     2     3     3     4
 0.0526520412     2     3     3     6
 -0.0079721165     2     3     4     7
 0.0270861166     2     3     4     8
 -0.0298817819     2     3     6     7
 -0.0002538967     2     3     6     8
 -0.0102452635     2     3     7     1
 -0.0525306717     2     3     7     2
 -0.0015181261     2     3     7     4
 -0.0204469583     2     3     7     6
 0.0083814695     2     3     8     1
 0.0106672960     2     3     8     2
 0.0046254226     2     3     8     4
 -0.0012109565     2     3     8     6
 -0.0663521220     2     4     1     1
 0.0070910107     2     4     1     2
 -0.0001553860     2     4     1     6
 -0.0014388568     2     4     3     3
 -0.0066103837     2     4     3     7
 0.0224470041     2     4     3     8
 -0.0359259597     2     4     4     1
 -0.5500033259     2     4     4     2
 0.0524160093     2     4     4     6
 -0.0037441316     2     4     5     5
 0.0059508303     2     4     6     1
 0.0234464116     2     4     6     2
 0.0102085429     2     4     6     6
 0.0015181261     2     4     7     3
 0.0112399342     2     4     7     7
 -0.0055044356     2     4     7     8
 -0.0046254226     2     4     8     3
 -0.0095186990     2     4     8     7
 -0.0006971067     2     4     8     8
 -0.0405924366     2     5     5     1
 -0.5761671445     2     5     5     2
 0.0037441316     2     5     5     4
 0.0514770613     2     5     5     6
 -0.1132583424     2     6     1     1
 -0.0009937668     2     6     1     2
 0.0001553860     2     6     1     4
 -0.0526520412     2     6     3     3
 -0.0092478980     2     6     3     7
 0.0004887338     2     6     3     8
 0.0054948625     2     6     4     1
 0.0234464116     2     6     4     2
 -0.0524160093     2     6     4     4
 -0.0514770613     2     6     5     5
 -0.0014034249     2     6     6     1
 -0.2811847214     2     6     6     2
 -0.0102085429     2     6     6     4
 0.0204469583     2     6     7     3
 -0.0053205246     2     6     7     7
 0.0074598311     2     6     7     8
 0.0012109565     2     6     8     3
 0.0042918044     2     6     8     7
 -0.0172726926     2     6     8     8
 0.0021565742     2     7     1     3
 0.0002987217     2     7     1     8
 -0.0072046495     2     7     3     1
 -0.0525306717     2     7     3     2
 0.0066103837     2     7     3     4
 0.0092478980     2     7     3     6
 0.0079721165     2     7     4     3
 0.0035384066     2     7     4     8
 0.0298817819     2     7     6     3
 0.0032088441     2     7     6     8
 -0.0033744830     2     7     7     1
 -0.2558215170     2     7     7     2
 -0.0112399342     2     7     7     4
 0.0053205246     2     7     7     6
 0.0026573330     2     7     8     1
 0.0430102487     2     7     8     2
 0.0095186990     2     7     8     4
 -0.0042918044     2     7     8     6
 -0.0024364500     2     8     1     3
 -0.0002987217     2     8     1     7
 0.0053592908     2     8     3     1
 0.0106672960     2     8     3     2
 -0.0224470041     2     8     3     4
 -0.0004887338     2     8     3     6
 -0.0270861166     2     8     4     3
 -0.0035384066     2     8     4     7
 0.0002538967     2     8     6     3
 -0.0032088441     2     8     6     7
 0.0023357665     2     8     7     1
 0.0430102487     2     8     7     2
 0.0055044356     2     8     7     4
 -0.0074598311     2     8     7     6
 -0.0020122241     2     8     8     1
 -0.3580755958     2     8     8     2
 0.0006971067     2     8     8     4
 0.0172726926     2     8     8     6
 -0.8708702187     3     1     1     3
 -0.1277019529     3     1     1     7
 0.0658404620     3     1     1     8
 -0.0312312865     3     1     2     3
 -0.0072046495     3     1     2     7
 0.0053592908     3     1     2     8
 0.0105967793     3     1     4     3
 0.0025799049     3     1     4     7
 -0.0017615755     3     1     4     8
 0.0040982340     3     1     6     3
 0.0035092578     3     1     6     7
 -0.0016737352     3     1     6     8
 0.0021565742     3     1     7     2
 0.0009787143     3     1     7     4
 0.0018472085     3     1     7     6
 -0.0024364500     3     1     8     2
 -0.0039592147     3     1     8     4
 0.0004142170     3     1     8     6
 -0.0312312865     3     2     1     3
 -0.0102452635     3     2     1     7
 0.0083814695     3     2     1     8
 -0.5284671011     3     2     2     3
 -0.0525306717     3     2     2     7
 0.0106672960     3     2     2     8
 0.0014388568     3     2     4     3
 -0.0015181261     3     2     4     7
 0.0046254226     3     2     4     8
 0.0526520412     3     2     6     3
 -0.0204469583     3     2     6     7
 -0.0012109565     3     2     6     8
 -0.0021565742     3     2     7     1
 -0.0079721165     3     2     7     4
 -0.0298817819     3     2     7     6
 0.0024364500     3     2     8     1
 0.0270861166     3     2     8     4
 -0.0002538967     3     2     8     6
 0.8708702187     3     3     1     1
 0.0312312865     3     3     1     2
 -0.0105967793     3     3     1     4
 -0.0040982340     3     3     1     6
 0.0312312865     3     3     2     1
 0.5284671011     3     3     2     2
 -0.0014388568     3     3     2     4
 -0.0526520412     3     3     2     6
 -0.0105967793     3     3     4     1
 -0.0014388568     3     3     4     2
 0.5620893014     3     3     4     4
 -0.0263004781     3     3     4     6
 0.5845233217     3     3     5     5
 -0.0040982340     3     3     6     1
 -0.0526520412     3     3     6     2
 -0.0263004781     3     3     6     4
 0.2839330376     3     3     6     6
 0.2468190884     3     3     7     7
 -0.0343044094     3     3     7     8
 -0.0343044094     3     3     8     7
 0.3407858265     3     3     8     8
 0.0105967793     3     4     1     3
 0.0017756160     3     4     1     7
 0.0021591875     3     4     1     8
 0.0014388568     3     4     2     3
 0.0066103837     3     4     2     7
 -0.0224470041     3     4     2     8
 -0.5620893014     3     4     4     3
 -0.0648082957     3     4     4     7
 0.0303839628     3     4     4     8
 0.0263004781     3     4     6     3
 -0.0013827409     3     4     6     7
 -0.0005871777     3     4     6     8
 -0.0009787143     3     4     7     1
 0.0079721165     3     4     7     2
 -0.0069863666     3     4     7     6
 0.0039592147     3     4     8     1
 -0.0270861166     3     4     8     2
 0.0014682174     3     4     8     6
 -0.5845233217     3     5     5     3
 -0.0668393080     3     5     5     7
 0.0231325446     3     5     5     8
 0.0040982340     3     6     1     3
 0.0016036429     3     6     1     7
 -0.0020875561     3     6     1     8
 0.0526520412     3     6     2     3
 0.0092478980     3     6     2     7
 -0.0004887338     3     6     2     8
 0.0263004781     3     6     4     3
 0.0052915562     3     6     4     7
 -0.0015078230     3     6     4     8
 -0.2839330376     3     6     6     3
 -0.0200524375     3     6     6     7
 -0.0103538464     3     6     6     8
 -0.0018472085     3     6     7     1
 0.0298817819     3     6     7     2
 0.0069863666     3     6     7     4
 -0.0004142170     3     6     8     1
 0.0002538967     3     6     8     2
 -0.0014682174     3     6     8     4
 0.1277019529     3     7     1     1
 0.0102452635     3     7     1     2
 -0.0017756160     3     7     1     4
 -0.0016036429     3     7     1     6
 0.0072046495     3     7     2     1
 0.0525306717     3     7     2     2
 -0.0066103837     3     7     2     4
 -0.0092478980     3     7     2     6
 -0.0025799049     3     7     4     1
 0.0015181261     3     7     4     2
 0.0648082957     3     7     4     4
 -0.0052915562     3     7     4     6
 0.0668393080     3     7     5     5
 -0.0035092578     3     7     6     1
 0.0204469583     3     7     6     2
 0.0013827409     3     7     6     4
 0.0200524375     3     7     6     6
 -0.2468190884     3     7     7     3
 -0.0125968749     3     7     7     8
 0.0343044094     3     7     8     3
 0.0234397082     3     7     8     8
 -0.0658404620     3     8     1     1
 -0.0083814695     3     8     1     2
 -0.0021591875     3     8     1     4
 0.0020875561     3     8     1     6
 -0.0053592908     3     8     2     1
 -0.0106672960     3     8     2     2
 0.0224470041     3     8     2     4
 0.0004887338     3     8     2     6
 0.0017615755     3     8     4     1
 -0.0046254226     3     8     4     2
 -0.0303839628     3     8     4     4
 0.0015078230     3     8     4     6
 -0.0231325446     3     8     5     5
 0.0016737352     3     8     6     1
 0.0012109565     3     8     6     2
 0.0005871777     3     8     6     4
 0.0103538464     3     8     6     6
 0.0343044094     3     8     7     3
 0.0125968749     3     8     7     7
 -0.3407858265     3     8     8     3
 -0.0234397082     3     8     8     7
 0.0663521220     4     1     1     2
 -0.9480706312     4     1     1     4
 0.0561321218     4     1     1     6
 -0.0070910107     4     1     2     2
 -0.0359259597     4     1     2     4
 0.0054948625     4     1     2     6
 -0.0105967793     4     1     3     3
 -0.0025799049     4     1     3     7
 0.0017615755     4     1     3     8
 -0.0135755808     4     1     5     5
 0.0001553860     4     1     6     2
 0.0079657248     4     1     6     4
 -0.0032078812     4     1     6     6
 -0.0017756160     4     1     7     3
 -0.0020716239     4     1     7     7
 0.0021487154     4     1     7     8
 -0.0021591875     4     1     8     3
 0.0009354816     4     1     8     7
 -0.0012822200     4     1     8     8
 -0.0663521220     4     2     1     1
 -0.0359259597     4     2     1     4
 0.0059508303     4     2     1     6
 0.0070910107     4     2     2     1
 -0.5500033259     4     2     2     4
 0.0234464116     4     2     2     6
 -0.0014388568     4     2     3     3
 0.0015181261     4     2     3     7
 -0.0046254226     4     2     3     8
 -0.0037441316     4     2     5     5
 -0.0001553860     4     2     6     1
 0.0524160093     4     2     6     4
 0.0102085429     4     2     6     6
 -0.0066103837     4     2     7     3
 0.0112399342     4     2     7     7
 -0.0095186990     4     2     7     8
 0.0224470041     4     2     8     3
 -0.0055044356     4     2     8     7
 -0.0006971067     4     2     8     8
 -0.0009787143     4     3     1     7
 0.0039592147     4     3     1     8
 0.0079721165     4     3     2     7
 -0.0270861166     4     3     2     8
 0.0105967793     4     3     3     1
 0.0014388568     4     3     3     2
 -0.5620893014     4     3     3     4
 0.0263004781     4     3     3     6
 -0.0069863666     4     3     6     7
 0.0014682174     4     3     6     8
 0.0017756160     4     3     7     1
 0.0066103837     4     3     7     2
 -0.0648082957     4     3     7     4
 -0.0013827409     4     3     7     6
 0.0021591875     4     3     8     1
 -0.0224470041     4     3     8     2
 0.0303839628     4     3     8     4
 -0.0005871777     4     3     8     6
 0.9480706312     4     4     1     1
 0.0359259597     4     4     1     2
 -0.0079657248     4     4     1     6
 0.0359259597     4     4     2     1
 0.5500033259     4     4     2     2
 -0.0524160093     4     4     2     6
 0.5620893014     4     4     3     3
 0.0648082957     4     4     3     7
 -0.0303839628     4     4     3     8
 0.6028770645     4     4     5     5
 -0.0079657248     4     4     6     1
 -0.0524160093     4     4     6     2
 0.2716793337     4     4     6     6
 0.0648082957     4     4     7     3
 0.2468698526     4     4     7     7
 -0.0362050929     4     4     7     8
 -0.0303839628     4     4     8     3
 -0.0362050929     4     4     8     7
 0.3396202501     4     4     8     8
 0.0135755808     4     5     5     1
 0.0037441316     4     5     5     2
 -0.6028770645     4     5     5     4
 0.0311845990     4     5     5     6
 -0.0561321218     4     6     1     1
 -0.0059508303     4     6     1     2
 0.0079657248     4     6     1     4
 -0.0054948625     4     6     2     1
 -0.0234464116     4     6     2     2
 0.0524160093     4     6     2     4
 -0.0263004781     4     6     3     3
 -0.0052915562     4     6     3     7
 0.0015078230     4     6     3     8
 -0.0311845990     4     6     5     5
 0.0032078812     4     6     6     1
 -0.0102085429     4     6     6     2
 -0.2716793337     4     6     6     4
 0.0013827409     4     6     7     3
 -0.0045463229     4     6     7     7
 0.0177632473     4     6     7     8
 0.0005871777     4     6     8     3
 -0.0010048097     4     6     8     7
 -0.0074097680     4     6     8     8
 0.0009787143     4     7     1     3
 0.0011792107     4     7     1     8
 -0.0079721165     4     7     2     3
 -0.0035384066     4     7     2     8
 0.0025799049     4     7     3     1
 -0.0015181261     4     7     3     2
 -0.0648082957     4     7     3     4
 0.0052915562     4     7     3     6
 0.0069863666     4     7     6     3
 0.0188244049     4     7     6     8
 0.0020716239     4     7     7     1
 -0.0112399342     4     7     7     2
 -0.2468698526     4     7     7     4
 0.0045463229     4     7     7     6
 -0.0009354816     4     7     8     1
 0.0055044356     4     7     8     2
 0.0362050929     4     7     8     4
 0.0010048097     4     7     8     6
 -0.0039592147     4     8     1     3
 -0.0011792107     4     8     1     7
 0.0270861166     4     8     2     3
 0.0035384066     4     8     2     7
 -0.0017615755     4     8     3     1
 0.0046254226     4     8     3     2
 0.0303839628     4     8     3     4
 -0.0015078230     4     8     3     6
 -0.0014682174     4     8     6     3
 -0.0188244049     4     8     6     7
 -0.0021487154     4     8     7     1
 0.0095186990     4     8     7     2
 0.0362050929     4     8     7     4
 -0.0177632473     4     8     7     6
 0.0012822200     4     8     8     1
 0.0006971067     4     8     8     2
 -0.3396202501     4     8     8     4
 0.0074097680     4     8     8     6
 -0.9922636651     5     1     1     5
 -0.0405924366     5     1     2     5
 0.0135755808     5     1     4     5
 0.0076256172     5     1     6     5
 -0.0405924366     5     2     1     5
 -0.5761671445     5     2     2     5
 0.0037441316     5     2     4     5
 0.0514770613     5     2     6     5
 -0.5845233217     5     3     3     5
 -0.0668393080     5     3     7     5
 0.0231325446     5     3     8     5
 0.0135755808     5     4     1     5
 0.0037441316     5     4     2     5
 -0.6028770645     5     4     4     5
 0.0311845990     5     4     6     5
 0.9922636651     5     5     1     1
 0.0405924366     5     5     1     2
 -0.0135755808     5     5     1     4
 -0.0076256172     5     5     1     6
 0.0405924366     5     5     2     1
 0.5761671445     5     5     2     2
 -0.0037441316     5     5     2     4
 -0.0514770613     5     5     2     6
 0.5845233217     5     5     3     3
 0.0668393080     5     5     3     7
 -0.0231325446     5     5     3     8
 -0.0135755808     5     5     4     1
 -0.0037441316     5     5     4     2
 0.6028770645     5     5     4     4
 -0.0311845990     5     5     4     6
 -0.0076256172     5     5     6     1
 -0.0514770613     5     5     6     2
 -0.0311845990     5     5     6     4
 0.2791279891     5     5     6     6
 0.0668393080     5     5     7     3
 0.2506250050     5     5     7     7
 -0.0398194009     5     5     7     8
 -0.0231325446     5     5     8     3
 -0.0398194009     5     5     8     7
 0.3492451110     5     5     8     8
 0.0076256172     5     6     1     5
 0.0514770613     5     6     2     5
 0.0311845990     5     6     4     5
 -0.2791279891     5     6     6     5
 -0.0668393080     5     7     3     5
 -0.2506250050     5     7     7     5
 0.0398194009     5     7     8     5
 0.0231325446     5     8     3     5
 0.0398194009     5     8     7     5
 -0.3492451110     5     8     8     5
 0.1132583424     6     1     1     2
 0.0561321218     6     1     1     4
 -0.3158678461     6     1     1     6
 0.0009937668     6     1     2     2
 0.0059508303     6     1     2     4
 -0.0014034249     6     1     2     6
 -0.0040982340     6     1     3     3
 -0.0035092578     6     1     3     7
 0.0016737352     6     1     3     8
 -0.0001553860     6     1     4     2
 -0.0079657248     6     1     4     4
 0.0032078812     6     1     4     6
 -0.0076256172     6     1     5     5
 -0.0016036429     6     1     7     3
 -0.0011561461     6     1     7     7
 0.0003698771     6     1     7     8
 0.0020875561     6     1     8     3
 0.0009954976     6     1     8     7
 -0.0003341044     6     1     8     8
 -0.1132583424     6     2     1     1
 0.0054948625     6     2     1     4
 -0.0014034249     6     2     1     6
 -0.0009937668     6     2     2     1
 0.0234464116     6     2     2     4
 -0.2811847214     6     2     2     6
 -0.0526520412     6     2     3     3
 0.0204469583     6     2     3     7
 0.0012109565     6     2     3     8
 0.0001553860     6     2     4     1
 -0.0524160093     6     2     4     4
 -0.0102085429     6     2     4     6
 -0.0514770613     6     2     5     5
 -0.0092478980     6     2     7     3
 -0.0053205246     6     2     7     7
 0.0042918044     6     2     7     8
 0.0004887338     6     2     8     3
 0.0074598311     6     2     8     7
 -0.0172726926     6     2     8     8
 -0.0018472085     6     3     1     7
 -0.0004142170     6     3     1     8
 0.0298817819     6     3     2     7
 0.0002538967     6     3     2     8
 0.0040982340     6     3     3     1
 0.0526520412     6     3     3     2
 0.0263004781     6     3     3     4
 -0.2839330376     6     3     3     6
 0.0069863666     6     3     4     7
 -0.0014682174     6     3     4     8
 0.0016036429     6     3     7     1
 0.0092478980     6     3     7     2
 0.0052915562     6     3     7     4
 -0.0200524375     6     3     7     6
 -0.0020875561     6     3     8     1
 -0.0004887338     6     3     8     2
 -0.0015078230     6     3     8     4
 -0.0103538464     6     3     8     6
 -0.0561321218     6     4     1     1
 -0.0054948625     6     4     1     2
 0.0032078812     6     4     1     6
 -0.0059508303     6     4     2     1
 -0.0234464116     6     4     2     2
 -0.0102085429     6     4     2     6
 -0.0263004781     6     4     3     3
 0.0013827409     6     4     3     7
 0.0005871777     6     4     3     8
 0.0079657248     6     4     4     1
 0.0524160093     6     4     4     2
 -0.2716793337     6     4     4     6
 -0.0311845990     6     4     5     5
 -0.0052915562     6     4     7     3
 -0.0045463229     6     4     7     7
 -0.0010048097     6     4     7     8
 0.0015078230     6     4     8     3
 0.0177632473     6     4     8     7
 -0.0074097680     6     4     8     8
 0.0076256172     6     5     5     1
 0.0514770613     6     5     5     2
 0.0311845990     6     5     5     4
 -0.2791279891     6     5     5     6
 0.3158678461     6     6     1     1
 0.0014034249     6     6     1     2
 -0.0032078812     6     6     1     4
 0.0014034249     6     6     2     1
 0.2811847214     6     6     2     2
 0.0102085429     6     6     2     4
 0.2839330376     6     6     3     3
 0.0200524375     6     6     3     7
 0.0103538464     6     6     3     8
 -0.0032078812     6     6     4     1
 0.0102085429     6     6     4     2
 0.2716793337     6     6     4     4
 0.2791279891     6     6     5     5
 0.0200524375     6     6     7     3
 0.1708185434     6     6     7     7
 -0.0190827380     6     6     7     8
 0.0103538464     6     6     8     3
 -0.0190827380     6     6     8     7
 0.2337445870     6     6     8     8
 0.0018472085     6     7     1     3
 -0.0006248318     6     7     1     8
 -0.0298817819     6     7     2     3
 -0.0032088441     6     7     2     8
 0.0035092578     6     7     3     1
 -0.0204469583     6     7     3     2
 -0.0013827409     6     7     3     4
 -0.0200524375     6     7     3     6
 -0.0069863666     6     7     4     3
 -0.0188244049     6     7     4     8
 0.0011561461     6     7     7     1
 0.0053205246     6     7     7     2
 0.0045463229     6     7     7     4
 -0.1708185434     6     7     7     6
 -0.0009954976     6     7     8     1
 -0.0074598311     6     7     8     2
 -0.0177632473     6     7     8     4
 0.0190827380     6     7     8     6
 0.0004142170     6     8     1     3
 0.0006248318     6     8     1     7
 -0.0002538967     6     8     2     3
 0.0032088441     6     8     2     7
 -0.0016737352     6     8     3     1
 -0.0012109565     6     8     3     2
 -0.0005871777     6     8     3     4
 -0.0103538464     6     8     3     6
 0.0014682174     6     8     4     3
 0.0188244049     6     8     4     7
 -0.0003698771     6     8     7     1
 -0.0042918044     6     8     7     2
 0.0010048097     6     8     7     4
 0.0190827380     6     8     7     6
 0.0003341044     6     8     8     1
 0.0172726926     6     8     8     2
 0.0074097680     6     8     8     4
 -0.2337445870     6     8     8     6
 -0.1277019529     7     1     1     3
 -0.2841635153     7     1     1     7
 0.0654010311     7     1     1     8
 -0.0102452635     7     1     2     3
 -0.0033744830     7     1     2     7
 0.0023357665     7     1     2     8
 -0.0021565742     7     1     3     2
 -0.0009787143     7     1     3     4
 -0.0018472085     7     1     3     6
 0.0017756160     7     1     4     3
 0.0020716239     7     1     4     7
 -0.0021487154     7     1     4     8
 0.0016036429     7     1     6     3
 0.0011561461     7     1     6     7
 -0.0003698771     7     1     6     8
 -0.0002987217     7     1     8     2
 -0.0011792107     7     1     8     4
 0.0006248318     7     1     8     6
 -0.0072046495     7     2     1     3
 -0.0033744830     7     2     1     7
 0.0026573330     7     2     1     8
 -0.0525306717     7     2     2     3
 -0.2558215170     7     2     2     7
 0.0430102487     7     2     2     8
 0.0021565742     7     2     3     1
 0.0079721165     7     2     3     4
 0.0298817819     7     2     3     6
 0.0066103837     7     2     4     3
 -0.0112399342     7     2     4     7
 0.0095186990     7     2     4     8
 0.0092478980     7     2     6     3
 0.0053205246     7     2     6     7
 -0.0042918044     7     2     6     8
 0.0002987217     7     2     8     1
 0.0035384066     7     2     8     4
 0.0032088441     7     2     8     6
 0.1277019529     7     3     1     1
 0.0072046495     7     3     1     2
 -0.0025799049     7     3     1     4
 -0.0035092578     7     3     1     6
 0.0102452635     7     3     2     1
 0.0525306717     7     3     2     2
 0.0015181261     7     3     2     4
 0.0204469583     7     3     2     6
 -0.2468190884     7     3     3     7
 0.0343044094     7     3     3     8
 -0.0017756160     7     3     4     1
 -0.0066103837     7     3     4     2
 0.0648082957     7     3     4     4
 0.0013827409     7     3     4     6
 0.0668393080     7     3     5     5
 -0.0016036429     7     3     6     1
 -0.0092478980     7     3     6     2