&FCI NORB=  6,NELEC= 10,MS2=0,
 ORBSYM=1,1,1,1,1,1
 ISYM=1,
&END
 0.9842042298     1     1     2     2
 0.0683218404     1     1     2     4
 -0.1225449333     1     1     2     6
 0.8674269588     1     1     3     3
 0.0683218404     1     1     4     2
 0.9507684773     1     1     4     4
 0.0604316763     1     1     4     6
 0.9980960876     1     1     5     5
 -0.1225449333     1     1     6     2
 0.0604316763     1     1     6     4
 0.3477939094     1     1     6     6
 -0.9842042298     1     2     2     1
 -0.0069544443     1     2     2     4
 -0.0008658661     1     2     2     6
 0.0306454524     1     2     3     3
 -0.0683218404     1     2     4     1
 0.0357109793     1     2     4     4
 0.0066423606     1     2     4     6
 0.0406728967     1     2     5     5
 0.1225449333     1     2     6     1
 0.0062580126     1     2     6     4
 0.0019287445     1     2     6     6
 -0.8674269588     1     3     3     1
 -0.0306454524     1     3     3     2
 -0.0105884342     1     3     3     4
 0.0045723844     1     3     3     6
 -0.0683218404     1     4     2     1
 0.0069544443     1     4     2     2
 -0.0002009736     1     4     2     6
 0.0105884342     1     4     3     3
 -0.9507684773     1     4     4     1
 -0.0357109793     1     4     4     2
 0.0090385843     1     4     4     6
 0.0137882082     1     4     5     5
 -0.0604316763     1     4     6     1
 -0.0062580126     1     4     6     2
 0.0040136772     1     4     6     6
 -0.9980960876     1     5     5     1
 -0.0406728967     1     5     5     2
 -0.0137882082     1     5     5     4
 0.0088141534     1     5     5     6
 0.1225449333     1     6     2     1
 0.0008658661     1     6     2     2
 0.0002009736     1     6     2     4
 -0.0045723844     1     6     3     3
 -0.0604316763     1     6     4     1
 -0.0066423606     1     6     4     2
 -0.0090385843     1     6     4     4
 -0.0088141534     1     6     5     5
 -0.3477939094     1     6     6     1
 -0.0019287445     1     6     6     2
 -0.0040136772     1     6     6     4
 -0.9842042298     2     1     1     2
 -0.0683218404     2     1     1     4
 0.1225449333     2     1     1     6
 0.0306454524     2     1     3     3
 -0.0069544443     2     1     4     2
 0.0357109793     2     1     4     4
 0.0062580126     2     1     4     6
 0.0406728967     2     1     5     5
 -0.0008658661     2     1     6     2
 0.0066423606     2     1     6     4
 0.0019287445     2     1     6     6
 0.9842042298     2     2     1     1
 0.0069544443     2     2     1     4
 0.0008658661     2     2     1     6
 0.5269538381     2     2     3     3
 0.0069544443     2     2     4     1
 0.5506918484     2     2     4     4
 0.0251779367     2     2     4     6
 0.5781186915     2     2     5     5
 0.0008658661     2     2     6     1
 0.0251779367     2     2     6     4
 0.3030707777     2     2     6     6
 -0.0306454524     2     3     3     1
 -0.5269538381     2     3     3     2
 -0.0021940903     2     3     3     4
 0.0582621773     2     3     3     6
 0.0683218404     2     4     1     1
 -0.0069544443     2     4     1     2
 0.0002009736     2     4     1     6
 0.0021940903     2     4     3     3
 -0.0357109793     2     4     4     1
 -0.5506918484     2     4     4     2
 0.0568296339     2     4     4     6
 0.0049705172     2     4     5     5
 -0.0066423606     2     4     6     1
 -0.0251779367     2     4     6     2
 -0.0111014065     2     4     6     6
 -0.0406728967     2     5     5     1
 -0.5781186915     2     5     5     2
 -0.0049705172     2     5     5     4
 0.0558203731     2     5     5     6
 -0.1225449333     2     6     1     1
 -0.0008658661     2     6     1     2
 -0.0002009736     2     6     1     4
 -0.0582621773     2     6     3     3
 -0.0062580126     2     6     4     1
 -0.0251779367     2     6     4     2
 -0.0568296339     2     6     4     4
 -0.0558203731     2     6     5     5
 -0.0019287445     2     6     6     1
 -0.3030707777     2     6     6     2
 0.0111014065     2     6     6     4
 -0.8674269588     3     1     1     3
 -0.0306454524     3     1     2     3
 -0.0105884342     3     1     4     3
 0.0045723844     3     1     6     3
 -0.0306454524     3     2     1     3
 -0.5269538381     3     2     2     3
 -0.0021940903     3     2     4     3
 0.0582621773     3     2     6     3
 0.8674269588     3     3     1     1
 0.0306454524     3     3     1     2
 0.0105884342     3     3     1     4
 -0.0045723844     3     3     1     6
 0.0306454524     3     3     2     1
 0.5269538381     3     3     2     2
 0.0021940903     3     3     2     4
 -0.0582621773     3     3     2     6
 0.0105884342     3     3     4     1
 0.0021940903     3     3     4     2
 0.5595322070     3     3     4     4
 0.0293576220     3     3     4     6
 0.5830430967     3     3     5     5
 -0.0045723844     3     3     6     1
 -0.0582621773     3     3     6     2
 0.0293576220     3     3     6     4
 0.3063336675     3     3     6     6
 -0.0105884342     3     4     1     3
 -0.0021940903     3     4     2     3
 -0.5595322070     3     4     4     3
 -0.0293576220     3     4     6     3
 -0.5830430967     3     5     5     3
 0.0045723844     3     6     1     3
 0.0582621773     3     6     2     3
 -0.0293576220     3     6     4     3
 -0.3063336675     3     6     6     3
 -0.0683218404     4     1     1     2
 -0.9507684773     4     1     1     4
 -0.0604316763     4     1     1     6
 0.0069544443     4     1     2     2
 -0.0357109793     4     1     2     4
 -0.0062580126     4     1     2     6
 0.0105884342     4     1     3     3
 0.0137882082     4     1     5     5
 -0.0002009736     4     1     6     2
 0.0090385843     4     1     6     4
 0.0040136772     4     1     6     6
 0.0683218404     4     2     1     1
 -0.0357109793     4     2     1     4
 -0.0066423606     4     2     1     6
 -0.0069544443     4     2     2     1
 -0.5506918484     4     2     2     4
 -0.0251779367     4     2     2     6
 0.0021940903     4     2     3     3
 0.0049705172     4     2     5     5
 0.0002009736     4     2     6     1
 0.0568296339     4     2     6     4
 -0.0111014065     4     2     6     6
 -0.0105884342     4     3     3     1
 -0.0021940903     4     3     3     2
 -0.5595322070     4     3     3     4
 -0.0293576220     4     3     3     6
 0.9507684773     4     4     1     1
 0.0357109793     4     4     1     2
 -0.0090385843     4     4     1     6
 0.0357109793     4     4     2     1
 0.5506918484     4     4     2     2
 -0.0568296339     4     4     2     6
 0.5595322070     4     4     3     3
 0.6043596864     4     4     5     5
 -0.0090385843     4     4     6     1
 -0.0568296339     4     4     6     2
 0.2927311109     4     4     6     6
 -0.0137882082     4     5     5     1
 -0.0049705172     4     5     5     2
 -0.6043596864     4     5     5     4
 -0.0345381821     4     5     5     6
 0.0604316763     4     6     1     1
 0.0066423606     4     6     1     2
 0.0090385843     4     6     1     4
 0.0062580126     4     6     2     1
 0.0251779367     4     6     2     2
 0.0568296339     4     6     2     4
 0.0293576220     4     6     3     3
 0.0345381821     4     6     5     5
 -0.0040136772     4     6     6     1
 0.0111014065     4     6     6     2
 -0.2927311109     4     6     6     4
 -0.9980960876     5     1     1     5
 -0.0406728967     5     1     2     5
 -0.0137882082     5     1     4     5
 0.0088141534     5     1     6     5
 -0.0406728967     5     2     1     5
 -0.5781186915     5     2     2     5
 -0.0049705172     5     2     4     5
 0.0558203731     5     2     6     5
 -0.5830430967     5     3     3     5
 -0.0137882082     5     4     1     5
 -0.0049705172     5     4     2     5
 -0.6043596864     5     4     4     5
 -0.0345381821     5     4     6     5
 0.9980960876     5     5     1     1
 0.0406728967     5     5     1     2
 0.0137882082     5     5     1     4
 -0.0088141534     5     5     1     6
 0.0406728967     5     5     2     1
 0.5781186915     5     5     2     2
 0.0049705172     5     5     2     4
 -0.0558203731     5     5     2     6
 0.5830430967     5     5     3     3
 0.0137882082     5     5     4     1
 0.0049705172     5     5     4     2
 0.6043596864     5     5     4     4
 0.0345381821     5     5     4     6
 -0.0088141534     5     5     6     1
 -0.0558203731     5     5     6     2
 0.0345381821     5     5     6     4
 0.3021531815     5     5     6     6
 0.0088141534     5     6     1     5
 0.0558203731     5     6     2     5
 -0.0345381821     5     6     4     5
 -0.3021531815     5     6     6     5
 0.1225449333     6     1     1     2
 -0.0604316763     6     1     1     4
 -0.3477939094     6     1     1     6
 0.0008658661     6     1     2     2
 -0.0066423606     6     1     2     4
 -0.0019287445     6     1     2     6
 -0.0045723844     6     1     3     3
 0.0002009736     6     1     4     2
 -0.0090385843     6     1     4     4
 -0.0040136772     6     1     4     6
 -0.0088141534     6     1     5     5
 -0.1225449333     6     2     1     1
 -0.0062580126     6     2     1     4
 -0.0019287445     6     2     1     6
 -0.0008658661     6     2     2     1
 -0.0251779367     6     2     2     4
 -0.3030707777     6     2     2     6
 -0.0582621773     6     2     3     3
 -0.0002009736     6     2     4     1
 -0.0568296339     6     2     4     4
 0.0111014065     6     2     4     6
 -0.0558203731     6     2     5     5
 0.0045723844     6     3     3     1
 0.0582621773     6     3     3     2
 -0.0293576220     6     3     3     4
 -0.3063336675     6     3     3     6
 0.0604316763     6     4     1     1
 0.0062580126     6     4     1     2
 -0.0040136772     6     4     1     6
 0.0066423606     6     4     2     1
 0.0251779367     6     4     2     2
 0.0111014065     6     4     2     6
 0.0293576220     6     4     3     3
 0.0090385843     6     4     4     1
 0.0568296339     6     4     4     2
 -0.2927311109     6     4     4     6
 0.0345381821     6     4     5     5
 0.0088141534     6     5     5     1
 0.0558203731     6     5     5     2
 -0.0345381821     6     5     5     4
 -0.3021531815     6     5     5     6
 0.3477939094     6     6     1     1
 0.0019287445     6     6     1     2
 0.0040136772     6     6     1     4
 0.0019287445     6     6     2     1
 0.3030707777     6     6     2     2
 -0.0111014065     6     6     2     4
 0.3063336675     6     6     3     3
 0.0040136772     6     6     4     1
 -0.0111014065     6     6     4     2
 0.2927311109     6     6     4     4
 0.3021531815     6     6     5     5
0.0 0 0 0 0
 0.9842042298     1     1     2     2
 0.0683218404     1     1     2     4
 -0.1225449333     1     1     2     6
 0.8674269588     1     1     3     3
 0.0683218404     1     1     4     2
 0.9507684773     1     1     4     4
 0.0604316763     1     1     4     6
 0.9980960876     1     1     5     5
 -0.1225449333     1     1     6     2
 0.0604316763     1     1     6     4
 0.3477939094     1     1     6     6
 -0.9842042298     1     2     2     1
 -0.0069544443     1     2     2     4
 -0.0008658661     1     2     2     6
 0.0306454524     1     2     3     3
 -0.0683218404     1     2     4     1
 0.0357109793     1     2     4     4
 0.0066423606     1     2     4     6
 0.0406728967     1     2     5     5
 0.1225449333     1     2     6     1
 0.0062580126     1     2     6     4
 0.0019287445     1     2     6     6
 -0.8674269588     1     3     3     1
 -0.0306454524     1     3     3     2
 -0.0105884342     1     3     3     4
 0.0045723844     1     3     3     6
 -0.0683218404     1     4     2     1
 0.0069544443     1     4     2     2
 -0.0002009736     1     4     2     6
 0.0105884342     1     4     3     3
 -0.9507684773     1     4     4     1
 -0.0357109793     1     4     4     2
 0.0090385843     1     4     4     6
 0.0137882082     1     4     5     5
 -0.0604316763     1     4     6     1
 -0.0062580126     1     4     6     2
 0.0040136772     1     4     6     6
 -0.9980960876     1     5     5     1
 -0.0406728967     1     5     5     2
 -0.0137882082     1     5     5     4
 0.0088141534     1     5     5     6
 0.1225449333     1     6     2     1
 0.0008658661     1     6     2     2
 0.0002009736     1     6     2     4
 -0.0045723844     1     6     3     3
 -0.0604316763     1     6     4     1
 -0.0066423606     1     6     4     2
 -0.0090385843     1     6     4     4
 -0.0088141534     1     6     5     5
 -0.3477939094     1     6     6     1
 -0.0019287445     1     6     6     2
 -0.0040136772     1     6     6     4
 -0.9842042298     2     1     1     2
 -0.0683218404     2     1     1     4
 0.1225449333     2     1     1     6
 0.0306454524     2     1     3     3
 -0.0069544443     2     1     4     2
 0.0357109793     2     1     4     4
 0.0062580126     2     1     4     6
 0.0406728967     2     1     5     5
 -0.0008658661     2     1     6     2
 0.0066423606     2     1     6     4
 0.0019287445     2     1     6     6
 0.9842042298     2     2     1     1
 0.0069544443     2     2     1     4
 0.0008658661     2     2     1     6
 0.5269538381     2     2     3     3
 0.0069544443     2     2     4     1
 0.5506918484     2     2     4     4
 0.0251779367     2     2     4     6
 0.5781186915     2     2     5     5
 0.0008658661     2     2     6     1
 0.0251779367     2     2     6     4
 0.3030707777     2     2     6     6
 -0.0306454524     2     3     3     1
 -0.5269538381     2     3     3     2
 -0.0021940903     2     3     3     4
 0.0582621773     2     3     3     6
 0.0683218404     2     4     1     1
 -0.0069544443     2     4     1     2
 0.0002009736     2     4     1     6
 0.0021940903     2     4     3     3
 -0.0357109793     2     4     4     1
 -0.5506918484     2     4     4     2
 0.0568296339     2     4     4     6
 0.0049705172     2     4     5     5
 -0.0066423606     2     4     6     1
 -0.0251779367     2     4     6     2
 -0.0111014065     2     4     6     6
 -0.0406728967     2     5     5     1
 -0.5781186915     2     5     5     2
 -0.0049705172     2     5     5     4
 0.0558203731     2     5     5     6
 -0.1225449333     2     6     1     1
 -0.0008658661     2     6     1     2
 -0.0002009736     2     6     1     4
 -0.0582621773     2     6     3     3
 -0.0062580126     2     6     4     1
 -0.0251779367     2     6     4     2
 -0.0568296339     2     6     4     4
 -0.0558203731     2     6     5     5
 -0.0019287445     2     6     6     1
 -0.3030707777     2     6     6     2
 0.0111014065     2     6     6     4
 -0.8674269588     3     1     1     3
 -0.0306454524     3     1     2     3
 -0.0105884342     3     1     4     3
 0.0045723844     3     1     6     3
 -0.0306454524     3     2     1     3
 -0.5269538381     3     2     2     3
 -0.0021940903     3     2     4     3
 0.0582621773     3     2     6     3
 0.8674269588     3     3     1     1
 0.0306454524     3     3     1     2
 0.0105884342     3     3     1     4
 -0.0045723844     3     3     1     6
 0.0306454524     3     3     2     1
 0.5269538381     3     3     2     2
 0.0021940903     3     3     2     4
 -0.0582621773     3     3     2     6
 0.0105884342     3     3     4     1
 0.0021940903     3     3     4     2
 0.5595322070     3     3     4     4
 0.0293576220     3     3     4     6
 0.5830430967     3     3     5     5
 -0.0045723844     3     3     6     1
 -0.0582621773     3     3     6     2
 0.0293576220     3     3     6     4
 0.3063336675     3     3     6     6
 -0.0105884342     3     4     1     3
 -0.0021940903     3     4     2     3
 -0.5595322070     3     4     4     3
 -0.0293576220     3     4     6     3
 -0.5830430967     3     5     5     3
 0.0045723844     3     6     1     3
 0.0582621773     3     6     2     3
 -0.0293576220     3     6     4     3
 -0.3063336675     3     6     6     3
 -0.0683218404     4     1     1     2
 -0.9507684773     4     1     1     4
 -0.0604316763     4     1     1     6
 0.0069544443     4     1     2     2
 -0.0357109793     4     1     2     4
 -0.0062580126     4     1     2     6
 0.0105884342     4     1     3     3
 0.0137882082     4     1     5     5
 -0.0002009736     4     1     6     2
 0.0090385843     4     1     6     4
 0.0040136772     4     1     6     6
 0.0683218404     4     2     1     1
 -0.0357109793     4     2     1     4
 -0.0066423606     4     2     1     6
 -0.0069544443     4     2     2     1
 -0.5506918484     4     2     2     4
 -0.0251779367     4     2     2     6
 0.0021940903     4     2     3     3
 0.0049705172     4     2     5     5
 0.0002009736     4     2     6     1
 0.0568296339     4     2     6     4
 -0.0111014065     4     2     6     6
 -0.0105884342     4     3     3     1
 -0.0021940903     4     3     3     2
 -0.5595322070     4     3     3     4
 -0.0293576220     4     3     3     6
 0.9507684773     4     4     1     1
 0.0357109793     4     4     1     2
 -0.0090385843     4     4     1     6
 0.0357109793     4     4     2     1
 0.5506918484     4     4     2     2
 -0.0568296339     4     4     2     6
 0.5595322070     4     4     3     3
 0.6043596864     4     4     5     5
 -0.0090385843     4     4     6     1
 -0.0568296339     4     4     6     2
 0.2927311109     4     4     6     6
 -0.0137882082     4     5     5     1
 -0.0049705172     4     5     5     2
 -0.6043596864     4     5     5     4
 -0.0345381821     4     5     5     6
 0.0604316763     4     6     1     1
 0.0066423606     4     6     1     2
 0.0090385843     4     6     1     4
 0.0062580126     4     6     2     1
 0.0251779367     4     6     2     2
 0.0568296339     4     6     2     4
 0.0293576220     4     6     3     3
 0.0345381821     4     6     5     5
 -0.0040136772     4     6     6     1
 0.0111014065     4     6     6     2
 -0.2927311109     4     6     6     4
 -0.9980960876     5     1     1     5
 -0.0406728967     5     1     2     5
 -0.0137882082     5     1     4     5
 0.0088141534     5     1     6     5
 -0.0406728967     5     2     1     5
 -0.5781186915     5     2     2     5
 -0.0049705172     5     2     4     5
 0.0558203731     5     2     6     5
 -0.5830430967     5     3     3     5
 -0.0137882082     5     4     1     5
 -0.0049705172     5     4     2     5
 -0.6043596864     5     4     4     5
 -0.0345381821     5     4     6     5
 0.9980960876     5     5     1     1
 0.0406728967     5     5     1     2
 0.0137882082     5     5     1     4
 -0.0088141534     5     5     1     6
 0.0406728967     5     5     2     1
 0.5781186915     5     5     2     2
 0.0049705172     5     5     2     4
 -0.0558203731     5     5     2     6
 0.5830430967     5     5     3     3
 0.0137882082     5     5     4     1
 0.0049705172     5     5     4     2
 0.6043596864     5     5     4     4
 0.0345381821     5     5     4     6
 -0.0088141534     5     5     6     1
 -0.0558203731     5     5     6     2
 0.0345381821     5     5     6     4
 0.3021531815     5     5     6     6
 0.0088141534     5     6     1     5
 0.0558203731     5     6     2     5
 -0.0345381821     5     6     4     5
 -0.3021531815     5     6     6     5
 0.1225449333     6     1     1     2
 -0.0604316763     6     1     1     4
 -0.3477939094     6     1     1     6
 0.0008658661     6     1     2     2
 -0.0066423606     6     1     2     4
 -0.0019287445     6     1     2     6
 -0.0045723844     6     1     3     3
 0.0002009736     6     1     4     2
 -0.0090385843     6     1     4     4
 -0.0040136772     6     1     4     6
 -0.0088141534     6     1     5     5
 -0.1225449333     6     2     1     1
 -0.0062580126     6     2     1     4
 -0.0019287445     6     2     1     6
 -0.0008658661     6     2     2     1
 -0.0251779367     6     2     2     4
 -0.3030707777     6     2     2     6
 -0.0582621773     6     2     3     3
 -0.0002009736     6     2     4     1
 -0.0568296339     6     2     4     4
 0.0111014065     6     2     4     6
 -0.0558203731     6     2     5     5
 0.0045723844     6     3     3     1
 0.0582621773     6     3     3     2
 -0.0293576220     6     3     3     4
 -0.3063336675     6     3     3     6
 0.0604316763     6     4     1     1
 0.0062580126     6     4     1     2
 -0.0040136772     6     4     1     6
 0.0066423606     6     4     2     1
 0.0251779367     6     4     2     2
 0.0111014065     6     4     2     6
 0.0293576220     6     4     3     3
 0.0090385843     6     4     4     1
 0.0568296339     6     4     4     2
 -0.2927311109     6     4     4     6
 0.0345381821     6     4     5     5
 0.0088141534     6     5     5     1
 0.0558203731     6     5     5     2
 -0.0345381821     6     5     5     4
 -0.3021531815     6     5     5     6
 0.3477939094     6     6     1     1
 0.0019287445     6     6     1     2
 0.0040136772     6     6     1     4
 0.0019287445     6     6     2     1
 0.3030707777     6     6     2     2
 -0.0111014065     6     6     2     4
 0.3063336675     6     6     3     3
 0.0040136772     6     6     4     1
 -0.0111014065     6     6     4     2
 0.2927311109     6     6     4     4
 0.3021531815     6     6     5     5
0.0 0 0 0 0
 4.7302005850     1     1     1     1
 0.4308553921     1     1     1     2
 0.1378702481     1     1     1     4
 -0.1260985889     1     1     1     6
 0.4308553921     1     1     2     1
 1.0478600110     1     1     2     2
 0.0846398345     1     1     2     4
 -0.1442151824     1     1     2     6
 0.8882233565     1     1     3     3
 0.1378702481     1     1     4     1
 0.0846398345     1     1     4     2
 0.9816104477     1     1     4     4
 0.0608844840     1     1     4     6
 1.0288107145     1     1     5     5
 -0.1260985889     1     1     6     1
 -0.1442151824     1     1     6     2
 0.0608844840     1     1     6     4
 0.3550816157     1     1     6     6
 0.4308553921     1     2     1     1
 0.0599915596     1     2     1     2
 0.0162263654     1     2     1     4
 -0.0205007580     1     2     1     6
 0.0636557812     1     2     2     1
 0.0145177815     1     2     2     2
 0.0076289554     1     2     2     4
 -0.0021957262     1     2     2     6
 0.0069735205     1     2     3     3
 0.0163179941     1     2     4     1
 0.0078918071     1     2     4     2
 0.0130286287     1     2     4     4
 -0.0011313755     1     2     4     6
 0.0116916380     1     2     5     5
 -0.0216702491     1     2     6     1
 -0.0010465056     1     2     6     2
 -0.0012872089     1     2     6     4
 0.0012702653     1     2     6     6
 0.0169168536     1     3     1     3
 -0.0228954295     1     3     2     3
 0.0207963977     1     3     3     1
 -0.0236719319     1     3     3     2
 -0.0030259020     1     3     3     4
 0.0039943166     1     3     3     6
 -0.0026509442     1     3     4     3
 0.0038907297     1     3     6     3
 0.1378702481     1     4     1     1
 0.0162263654     1     4     1     2
 0.0266301706     1     4     1     4
 0.0000779987     1     4     1     6
 0.0163179941     1     4     2     1
 0.0145833997     1     4     2     2
 -0.0220616032     1     4     2     4
 -0.0076717607     1     4     2     6
 0.0075625322     1     4     3     3
 0.0308419704     1     4     4     1
 -0.0226823506     1     4     4     2
 -0.0082643960     1     4     4     4
 0.0030131014     1     4     4     6
 0.0047679366     1     4     5     5
 0.0004528077     1     4     6     1
 -0.0075452215     1     4     6     2
 0.0026274878     1     4     6     4
 0.0049537018     1     4     6     6
 0.0261672047     1     5     1     5
 -0.0286767481     1     5     2     5
 -0.0087171700     1     5     4     5
 0.0307146269     1     5     5     1
 -0.0289812587     1     5     5     2
 -0.0090202716     1     5     5     4
 0.0065937193     1     5     5     6
 0.0059313517     1     5     6     5
 -0.1260985889     1     6     1     1
 -0.0205007580     1     6     1     2
 0.0000779987     1     6     1     4
 0.0080151166     1     6     1     6
 -0.0216702491     1     6     2     1
 -0.0013298601     1     6     2     2
 -0.0074707871     1     6     2     4
 -0.0012104729     1     6     2     6
 -0.0005780678     1     6     3     3
 0.0004528077     1     6     4     1
 -0.0077737361     1     6     4     2
 -0.0060254829     1     6     4     4
 0.0014771059     1     6     4     6
 -0.0022204341     1     6     5     5
 0.0072877063     1     6     6     1
 -0.0006584792     1     6     6     2
 0.0009400246     1     6     6     4
 0.0005616157     1     6     6     6
 0.4308553921     2     1     1     1
 0.0636557812     2     1     1     2
 0.0163179941     2     1     1     4
 -0.0216702491     2     1     1     6
 0.0599915596     2     1     2     1
 0.0145177815     2     1     2     2
 0.0078918071     2     1     2     4
 -0.0010465056     2     1     2     6
 0.0069735205     2     1     3     3
 0.0162263654     2     1     4     1
 0.0076289554     2     1     4     2
 0.0130286287     2     1     4     4
 -0.0012872089     2     1     4     6
 0.0116916380     2     1     5     5
 -0.0205007580     2     1     6     1
 -0.0021957262     2     1     6     2
 -0.0011313755     2     1     6     4
 0.0012702653     2     1     6     6
 1.0478600110     2     2     1     1
 0.0145177815     2     2     1     2
 0.0145833997     2     2     1     4
 -0.0013298601     2     2     1     6
 0.0145177815     2     2     2     1
 0.7450070998     2     2     2     2
 -0.0173047056     2     2     2     4
 -0.0839559224     2     2     2     6
 0.6742847120     2     2     3     3
 0.0145833997     2     2     4     1
 -0.0173047056     2     2     4     2
 0.6698257994     2     2     4     4
 0.0403429450     2     2     4     6
 0.6999309128     2     2     5     5
 -0.0013298601     2     2     6     1
 -0.0839559224     2     2     6     2
 0.0403429450     2     2     6     4
 0.3266784326     2     2     6     6
 -0.0228954295     2     3     1     3
 0.1428302482     2     3     2     3
 -0.0236719319     2     3     3     1
 0.1473308739     2     3     3     2
 -0.0141470854     2     3     3     4
 -0.0037881591     2     3     3     6
 -0.0147097905     2     3     4     3
 -0.0035954507     2     3     6     3
 0.0846398345     2     4     1     1
 0.0076289554     2     4     1     2
 -0.0220616032     2     4     1     4
 -0.0074707871     2     4     1     6
 0.0078918071     2     4     2     1
 -0.0173047056     2     4     2     2
 0.1147522927     2     4     2     4
 0.0147900997     2     4     2     6
 -0.0119529951     2     4     3     3
 -0.0226823506     2     4     4     1
 0.1191339510     2     4     4     2
 0.0638052569     2     4     4     4
 -0.0002191468     2     4     4     6
 0.0325953153     2     4     5     5
 -0.0077737361     2     4     6     1
 0.0151650083     2     4     6     2
 -0.0004168385     2     4     6     4
 -0.0237794141     2     4     6     6
 -0.0286767481     2     5     1     5
 0.1180114632     2     5     2     5
 0.0275990163     2     5     4     5
 -0.0289812587     2     5     5     1
 0.1218122213     2     5     5     2
 0.0276247981     2     5     5     4
 -0.0186233537     2     5     5     6
 -0.0176637418     2     5     6     5
 -0.1442151824     2     6     1     1
 -0.0021957262     2     6     1     2
 -0.0076717607     2     6     1     4
 -0.0012104729     2     6     1     6
 -0.0010465056     2     6     2     1
 -0.0839559224     2     6     2     2
 0.0147900997     2     6     2     4
 0.0294075799     2     6     2     6
 -0.0620503364     2     6     3     3
 -0.0075452215     2     6     4     1
 0.0151650083     2     6     4     2
 -0.0570487807     2     6     4     4
 -0.0162824462     2     6     4     6
 -0.0744437268     2     6     5     5
 -0.0006584792     2     6     6     1
 0.0236076549     2     6     6     2
 -0.0126780076     2     6     6     4
 -0.0106553758     2     6     6     6
 0.0207963977     3     1     1     3
 -0.0236719319     3     1     2     3
 0.0169168536     3     1     3     1
 -0.0228954295     3     1     3     2
 -0.0026509442     3     1     3     4
 0.0038907297     3     1     3     6
 -0.0030259020     3     1     4     3
 0.0039943166     3     1     6     3
 -0.0236719319     3     2     1     3
 0.1473308739     3     2     2     3
 -0.0228954295     3     2     3     1
 0.1428302482     3     2     3     2
 -0.0147097905     3     2     3     4
 -0.0035954507     3     2     3     6
 -0.0141470854     3     2     4     3
 -0.0037881591     3     2     6     3
 0.8882233565     3     3     1     1
 0.0069735205     3     3     1     2
 0.0075625322     3     3     1     4
 -0.0005780678     3     3     1     6
 0.0069735205     3     3     2     1
 0.6742847120     3     3     2     2
 -0.0119529951     3     3     2     4
 -0.0620503364     3     3     2     6
 0.6476874092     3     3     3     3
 0.0075625322     3     3     4     1
 -0.0119529951     3     3     4     2
 0.5962070329     3     3     4     4
 0.0279605090     3     3     4     6
 0.6111122449     3     3     5     5
 -0.0005780678     3     3     6     1
 -0.0620503364     3     3     6     2
 0.0279605090     3     3     6     4
 0.3207704897     3     3     6     6
 -0.0030259020     3     4     1     3
 -0.0141470854     3     4     2     3
 -0.0026509442     3     4     3     1
 -0.0147097905     3     4     3     2
 0.0308975460     3     4     3     4
 -0.0022049011     3     4     3     6
 0.0366748259     3     4     4     3
 -0.0013971130     3     4     6     3
 0.0224723852     3     5     3     5
 0.0280691482     3     5     5     3
 0.0039943166     3     6     1     3
 -0.0037881591     3     6     2     3
 0.0038907297     3     6     3     1
 -0.0035954507     3     6     3     2
 -0.0022049011     3     6     3     4