&FCI NORB= 14,NELEC= 10,MS2=0,
 ORBSYM=1,1,1,1,1,1,1,1,1,1,1,1,1,1
 ISYM=1,
&END
 0.9844813257     1     1     2     2
 0.0662960170     1     1     2     4
 0.0879865626     1     1     2     6
 0.0533829457     1     1     2     8
 0.1045179494     1     1     2    11
 0.0348753883     1     1     2    13
 0.8715018325     1     1     3     3
 0.0926526899     1     1     3     7
 -0.0470376998     1     1     3    10
 -0.1947911168     1     1     3    12
 0.0662960170     1     1     4     2
 0.9497989689     1     1     4     4
 -0.0502819186     1     1     4     6
 0.1021554102     1     1     4     8
 -0.1390431647     1     1     4    11
 -0.0268037206     1     1     4    13
 0.9941437283     1     1     5     5
 -0.1750712107     1     1     5     9
 0.0879865626     1     1     6     2
 -0.0502819186     1     1     6     4
 0.2480827843     1     1     6     6
 0.0195121234     1     1     6     8
 0.0963276740     1     1     6    11
 0.0297851017     1     1     6    13
 0.0926526899     1     1     7     3
 0.2102228374     1     1     7     7
 0.0000000002     1     1     7     8
 -0.0242893396     1     1     7    10
 0.0000000001     1     1     7    11
 -0.1044815217     1     1     7    12
 0.0533829457     1     1     8     2
 0.1021554102     1     1     8     4
 0.0195121234     1     1     8     6
 0.0000000002     1     1     8     7
 0.2758917148     1     1     8     8
 0.0000000001     1     1     8    10
 -0.0157682870     1     1     8    11
 0.0000000002     1     1     8    12
 -0.0122252699     1     1     8    13
 -0.1750712107     1     1     9     5
 0.3213604750     1     1     9     9
 -0.0470376998     1     1    10     3
 -0.0242893396     1     1    10     7
 0.0000000001     1     1    10     8
 0.2767988714     1     1    10    10
 0.0507251806     1     1    10    12
 0.1045179494     1     1    11     2
 -0.1390431647     1     1    11     4
 0.0963276740     1     1    11     6
 0.0000000001     1     1    11     7
 -0.0157682870     1     1    11     8
 0.3623553235     1     1    11    11
 0.0000000001     1     1    11    12
 0.0178553835     1     1    11    13
 -0.1947911168     1     1    12     3
 -0.1044815217     1     1    12     7
 0.0000000002     1     1    12     8
 0.0507251806     1     1    12    10
 0.0000000001     1     1    12    11
 0.3842916448     1     1    12    12
 0.0348753883     1     1    13     2
 -0.0268037206     1     1    13     4
 0.0297851017     1     1    13     6
 -0.0122252699     1     1    13     8
 0.0178553835     1     1    13    11
 -0.0000000001     1     1    13    12
 0.2983460313     1     1    13    13
 0.2999975944     1     1    14    14
 -0.9844813257     1     2     2     1
 0.0070627619     1     2     2     4
 -0.0008713017     1     2     2     6
 0.0017370780     1     2     2     8
 -0.0028559838     1     2     2    11
 -0.0007209599     1     2     2    13
 -0.0312512100     1     2     3     3
 -0.0067074672     1     2     3     7
 0.0049347251     1     2     3    10
 0.0168148434     1     2     3    12
 -0.0662960170     1     2     4     1
 -0.0360607246     1     2     4     4
 0.0046092128     1     2     4     6
 -0.0062902483     1     2     4     8
 0.0123859575     1     2     4    11
 0.0031287148     1     2     4    13
 -0.0407530281     1     2     5     5
 0.0129744738     1     2     5     9
 -0.0879865626     1     2     6     1
 0.0043649737     1     2     6     4
 -0.0007158687     1     2     6     6
 0.0007860632     1     2     6     8
 -0.0020187692     1     2     6    11
 -0.0004792833     1     2     6    13
 -0.0049166619     1     2     7     3
 -0.0013673735     1     2     7     7
 0.0000000001     1     2     7     8
 0.0009130816     1     2     7    10
 0.0035904773     1     2     7    12
 -0.0533829457     1     2     8     1
 -0.0044326917     1     2     8     4
 0.0005015094     1     2     8     6
 0.0000000001     1     2     8     7
 -0.0014896884     1     2     8     8
 0.0020870273     1     2     8    11
 0.0002607336     1     2     8    13
 0.0099248836     1     2     9     5
 -0.0044806863     1     2     9     9
 0.0033432132     1     2    10     3
 0.0008195278     1     2    10     7
 -0.0007879748     1     2    10    10
 -0.0021255172     1     2    10    12
 -0.1045179494     1     2    11     1
 0.0103086635     1     2    11     4
 -0.0017244467     1     2    11     6
 0.0025019727     1     2    11     8
 -0.0047296126     1     2    11    11
 -0.0010097184     1     2    11    13
 0.0115529682     1     2    12     3
 0.0033564381     1     2    12     7
 -0.0021935824     1     2    12    10
 -0.0082348076     1     2    12    12
 -0.0348753883     1     2    13     1
 0.0023166472     1     2    13     4
 -0.0003527865     1     2    13     6
 0.0003030640     1     2    13     8
 -0.0008750853     1     2    13    11
 -0.0000768013     1     2    13    13
 0.0001881729     1     2    14    14
 -0.0012514719     1     3     2     7
 0.0012467546     1     3     2    10
 0.0040258810     1     3     2    12
 -0.8715018325     1     3     3     1
 0.0312512100     1     3     3     2
 0.0105622784     1     3     3     4
 0.0029829396     1     3     3     6
 0.0035783950     1     3     3     8
 0.0011458092     1     3     3    11
 0.0029492451     1     3     3    13
 0.0004891300     1     3     4     7
 -0.0022059022     1     3     4    10
 -0.0015207292     1     3     4    12
 -0.0022130379     1     3     5    14
 0.0012403940     1     3     6     7
 0.0000916622     1     3     6    10
 -0.0011864165     1     3     6    12
 -0.0926526899     1     3     7     1
 0.0049166619     1     3     7     2
 0.0017438282     1     3     7     4
 0.0020102545     1     3     7     6
 0.0012616153     1     3     7     8
 0.0013451641     1     3     7    11
 0.0000049809     1     3     7    13
 0.0006713145     1     3     8     7
 0.0007632565     1     3     8    10
 -0.0017383067     1     3     8    12
 -0.0008043409     1     3     9    14
 0.0470376998     1     3    10     1
 -0.0033432132     1     3    10     2
 -0.0011217783     1     3    10     4
 -0.0007804817     1     3    10     6
 0.0007274484     1     3    10     8
 -0.0019714335     1     3    10    11
 -0.0007011140     1     3    10    13
 0.0007906336     1     3    11     7
 -0.0007395094     1     3    11    10
 -0.0021373361     1     3    11    12
 0.1947911168     1     3    12     1
 -0.0115529682     1     3    12     2
 -0.0040227249     1     3    12     4
 -0.0032341030     1     3    12     6
 -0.0030970509     1     3    12     8
 -0.0038356375     1     3    12    11
 -0.0008165087     1     3    12    13
 -0.0007408662     1     3    13     7
 0.0000035510     1     3    13    10
 0.0010989086     1     3    13    12
 0.0001174061     1     3    14     5
 -0.0016638816     1     3    14     9
 -0.0662960170     1     4     2     1
 -0.0070627619     1     4     2     2
 -0.0002020934     1     4     2     6
 -0.0013424200     1     4     2     8
 0.0010222152     1     4     2    11
 0.0005434674     1     4     2    13
 -0.0105622784     1     4     3     3
 -0.0013748017     1     4     3     7
 -0.0010568456     1     4     3    10
 0.0027843125     1     4     3    12
 -0.9497989689     1     4     4     1
 0.0360607246     1     4     4     2
 0.0057763691     1     4     4     6
 0.0026118806     1     4     4     8
 0.0083599197     1     4     4    11
 0.0003494925     1     4     4    13
 -0.0135946616     1     4     5     5
 0.0041824687     1     4     5     9
 0.0502819186     1     4     6     1
 -0.0043649737     1     4     6     2
 -0.0020409263     1     4     6     6
 0.0005369628     1     4     6     8
 -0.0026087485     1     4     6    11
 -0.0006835104     1     4     6    13
 -0.0017438282     1     4     7     3
 -0.0010105892     1     4     7     7
 0.0000000001     1     4     7     8
 0.0008501054     1     4     7    10
 0.0012383708     1     4     7    12
 -0.1021554102     1     4     8     1
 0.0044326917     1     4     8     2
 0.0018903706     1     4     8     6
 0.0000000001     1     4     8     7
 0.0017025374     1     4     8     8
 0.0000000001     1     4     8    10
 0.0008168690     1     4     8    11
 0.0000000001     1     4     8    12
 0.0014624329     1     4     8    13
 0.0035040124     1     4     9     5
 -0.0014750196     1     4     9     9
 0.0011217783     1     4    10     3
 0.0012940113     1     4    10     7
 0.0000000001     1     4    10     8
 0.0000395526     1     4    10    10
 -0.0026814253     1     4    10    12
 0.1390431647     1     4    11     1
 -0.0103086635     1     4    11     2
 -0.0035386109     1     4    11     6
 -0.0015600342     1     4    11     8
 -0.0051877266     1     4    11    11
 -0.0017647303     1     4    11    13
 0.0040227249     1     4    12     3
 0.0013165123     1     4    12     7
 0.0000000001     1     4    12     8
 -0.0016430951     1     4    12    10
 -0.0034717280     1     4    12    12
 0.0268037206     1     4    13     1
 -0.0023166472     1     4    13     2
 -0.0011767769     1     4    13     6
 0.0012202401     1     4    13     8
 -0.0024511172     1     4    13    11
 -0.0017441692     1     4    13    13
 -0.0015130979     1     4    14    14
 0.0019848180     1     5     2     9
 -0.0024408140     1     5     3    14
 0.0004271559     1     5     4     9
 -0.9941437283     1     5     5     1
 0.0407530281     1     5     5     2
 0.0135946616     1     5     5     4
 0.0053045372     1     5     5     6
 0.0064247371     1     5     5     8
 0.0068363180     1     5     5    11
 0.0020175456     1     5     5    13
 -0.0017722322     1     5     6     9
 0.0005177134     1     5     7    14
 -0.0001953097     1     5     8     9
 0.1750712107     1     5     9     1
 -0.0099248836     1     5     9     2
 -0.0035040124     1     5     9     4
 -0.0035272933     1     5     9     6
 -0.0022608361     1     5     9     8
 -0.0019048053     1     5     9    11
 -0.0009047741     1     5     9    13
 -0.0000512625     1     5    10    14
 0.0004417321     1     5    11     9
 -0.0006543506     1     5    12    14
 -0.0002375095     1     5    13     9
 -0.0001174061     1     5    14     3
 0.0010390698     1     5    14     7
 -0.0004037496     1     5    14    10
 -0.0019339359     1     5    14    12
 -0.0879865626     1     6     2     1
 0.0008713017     1     6     2     2
 0.0002020934     1     6     2     4
 0.0002941654     1     6     2     8
 -0.0003130414     1     6     2    11
 -0.0001329168     1     6     2    13
 -0.0029829396     1     6     3     3
 -0.0007561478     1     6     3     7
 0.0008785297     1     6     3    10
 0.0020480074     1     6     3    12
 0.0502819186     1     6     4     1
 -0.0046092128     1     6     4     2
 -0.0057763691     1     6     4     4
 -0.0013501826     1     6     4     8
 0.0009495597     1     6     4    11
 0.0004931982     1     6     4    13
 -0.0053045372     1     6     5     5
 0.0017241506     1     6     5     9
 -0.2480827843     1     6     6     1
 0.0007158687     1     6     6     2
 0.0020409263     1     6     6     4
 0.0002988109     1     6     6     8
 -0.0004152386     1     6     6    11
 -0.0000834240     1     6     6    13
 -0.0020102545     1     6     7     3
 -0.0003927655     1     6     7     7
 0.0002429586     1     6     7    10
 0.0011683360     1     6     7    12
 -0.0195121234     1     6     8     1
 -0.0005015094     1     6     8     2
 -0.0018903706     1     6     8     4
 -0.0006589381     1     6     8     8
 0.0006602062     1     6     8    11
 -0.0000586654     1     6     8    13
 0.0035272933     1     6     9     5
 -0.0012858937     1     6     9     9
 0.0007804817     1     6    10     3
 0.0000340461     1     6    10     7
 -0.0001684979     1     6    10    10
 -0.0001640372     1     6    10    12
 -0.0963276740     1     6    11     1
 0.0017244467     1     6    11     2
 0.0035386109     1     6    11     4
 0.0009541226     1     6    11     8
 -0.0006321241     1     6    11    11
 -0.0000576801     1     6    11    13
 0.0032341030     1     6    12     3
 0.0007580845     1     6    12     7
 -0.0004018584     1     6    12    10
 -0.0018319421     1     6    12    12
 -0.0297851017     1     6    13     1
 0.0003527865     1     6    13     2
 0.0011767769     1     6    13     4
 0.0000271701     1     6    13     8
 -0.0000887161     1     6    13    11
 0.0001792151     1     6    13    13
 0.0002546953     1     6    14    14
 0.0012514719     1     7     2     3
 0.0000911442     1     7     2    10
 0.0002178166     1     7     2    12
 -0.0926526899     1     7     3     1
 0.0067074672     1     7     3     2
 0.0013748017     1     7     3     4
 0.0007561478     1     7     3     6
 0.0005962154     1     7     3     8
 0.0005202963     1     7     3    11
 0.0007390054     1     7     3    13
 -0.0004891300     1     7     4     3
 -0.0004466872     1     7     4    10
 -0.0000840261     1     7     4    12
 -0.0005179885     1     7     5    14
 -0.0012403940     1     7     6     3
 0.0002085057     1     7     6    10
 0.0004088742     1     7     6    12
 -0.2102228374     1     7     7     1
 0.0013673735     1     7     7     2
 0.0010105892     1     7     7     4
 0.0003927655     1     7     7     6
 0.0004039713     1     7     7     8
 0.0001271203     1     7     7    11
 -0.0000367971     1     7     7    13
 -0.0000000002     1     7     8     1
 -0.0000000001     1     7     8     2
 -0.0006713145     1     7     8     3
 -0.0000000001     1     7     8     4
 0.0002751924     1     7     8    10
 -0.0000194783     1     7     8    12
 -0.0001806260     1     7     9    14
 0.0242893396     1     7    10     1
 -0.0008195278     1     7    10     2
 -0.0012940113     1     7    10     4
 -0.0000340461     1     7    10     6
 -0.0000299037     1     7    10     8
 -0.0000684789     1     7    10    11
 -0.0000759558     1     7    10    13
 -0.0000000001     1     7    11     1
 -0.0007906336     1     7    11     3
 -0.0000453466     1     7    11    10
 -0.0000446908     1     7    11    12
 0.1044815217     1     7    12     1
 -0.0033564381     1     7    12     2
 -0.0013165123     1     7    12     4
 -0.0007580845     1     7    12     6
 -0.0007944147     1     7    12     8
 -0.0008492984     1     7    12    11
 -0.0001903089     1     7    12    13
 0.0007408662     1     7    13     3
 -0.0001108462     1     7    13    10
 -0.0001577648     1     7    13    12
 -0.0010390698     1     7    14     5
 -0.0000032339     1     7    14     9
 -0.0533829457     1     8     2     1
 -0.0017370780     1     8     2     2
 0.0013424200     1     8     2     4
 -0.0002941654     1     8     2     6
 -0.0004539522     1     8     2    11
 -0.0000564700     1     8     2    13
 -0.0035783950     1     8     3     3
 -0.0005962154     1     8     3     7
 0.0000518643     1     8     3    10
 0.0014170239     1     8     3    12
 -0.1021554102     1     8     4     1
 0.0062902483     1     8     4     2
 -0.0026118806     1     8     4     4
 0.0013501826     1     8     4     6
 0.0023883207     1     8     4    11
 0.0002358574     1     8     4    13
 -0.0064247371     1     8     5     5
 0.0020872225     1     8     5     9
 -0.0195121234     1     8     6     1
 -0.0007860632     1     8     6     2
 -0.0005369628     1     8     6     4
 -0.0002988109     1     8     6     6
 -0.0002950765     1     8     6    11
 -0.0000862468     1     8     6    13
 -0.0000000002     1     8     7     1
 -0.0000000001     1     8     7     2
 -0.0012616153     1     8     7     3
 -0.0000000001     1     8     7     4
 -0.0004039713     1     8     7     7
 0.0003051613     1     8     7    10
 0.0007758660     1     8     7    12
 -0.2758917148     1     8     8     1
 0.0014896884     1     8     8     2
 -0.0017025374     1     8     8     4
 0.0006589381     1     8     8     6
 0.0009190004     1     8     8    11
 0.0004434210     1     8     8    13
 0.0022608361     1     8     9     5
 -0.0008534753     1     8     9     9
 -0.0000000001     1     8    10     1
 -0.0007274484     1     8    10     3
 -0.0000000001     1     8    10     4
 0.0000299037     1     8    10     7
 0.0001508744     1     8    10    10
 0.0000117924     1     8    10    12
 0.0157682870     1     8    11     1
 -0.0025019727     1     8    11     2
 0.0015600342     1     8    11     4
 -0.0009541226     1     8    11     6
 -0.0016748958     1     8    11    11
 -0.0004952727     1     8    11    13
 -0.0000000002     1     8    12     1
 0.0030970509     1     8    12     3
 -0.0000000001     1     8    12     4
 0.0007944147     1     8    12     7
 -0.0006759713     1     8    12    10
 -0.0019971093     1     8    12    12
 0.0122252699     1     8    13     1
 -0.0003030640     1     8    13     2
 -0.0012202401     1     8    13     4
 -0.0000271701     1     8    13     6
 0.0000223248     1     8    13    11
 -0.0001973772     1     8    13    13
 -0.0002632899     1     8    14    14
 -0.0019848180     1     9     2     5
 0.0008546228     1     9     3    14
 -0.0004271559     1     9     4     5
 0.1750712107     1     9     5     1
 -0.0129744738     1     9     5     2
 -0.0041824687     1     9     5     4
 -0.0017241506     1     9     5     6
 -0.0020872225     1     9     5     8
 -0.0022750910     1     9     5    11
 -0.0006466828     1     9     5    13
 0.0017722322     1     9     6     5
 -0.0001768227     1     9     7    14
 0.0001953097     1     9     8     5
 -0.3213604750     1     9     9     1
 0.0044806863     1     9     9     2
 0.0014750196     1     9     9     4
 0.0012858937     1     9     9     6
 0.0008534753     1     9     9     8
 0.0007463702     1     9     9    11
 0.0003414587     1     9     9    13
 0.0000123049     1     9    10    14
 -0.0004417321     1     9    11     5
 0.0002227857     1     9    12    14
 0.0002375095     1     9    13     5
 0.0016638816     1     9    14     3
 0.0000032339     1     9    14     7
 -0.0001048607     1     9    14    10
 -0.0002135457     1     9    14    12
 -0.0012467546     1    10     2     3
 -0.0000911442     1    10     2     7
 0.0000733939     1    10     2    12
 0.0470376998     1    10     3     1
 -0.0049347251     1    10     3     2
 0.0010568456     1    10     3     4
 -0.0008785297     1    10     3     6
 -0.0000518643     1    10     3     8
 -0.0012351252     1    10     3    11
 -0.0006982902     1    10     3    13
 0.0022059022     1    10     4     3
 0.0004466872     1    10     4     7
 -0.0010350547     1    10     4    12
 0.0003350703     1    10     5    14
 -0.0000916622     1    10     6     3
 -0.0002085057     1    10     6     7
 0.0002378697     1    10     6    12
 0.0242893396     1    10     7     1
 -0.0009130816     1    10     7     2
 -0.0008501054     1    10     7     4
 -0.0002429586     1    10     7     6
 -0.0003051613     1    10     7     8
 -0.0000239047     1    10     7    11
 0.0000342597     1    10     7    13
 -0.0000000001     1    10     8     1
 -0.0007632565     1    10     8     3
 -0.0000000001     1    10     8     4
 -0.0002751924     1    10     8     7
 0.0006868995     1    10     8    12
 0.0001164081     1    10     9    14
 -0.2767988714     1    10    10     1
 0.0007879748     1    10    10     2
 -0.0000395526     1    10    10     4
 0.0001684979     1    10    10     6
 -0.0001508744     1    10    10     8
 0.0004215965     1    10    10    11
 0.0001322142     1    10    10    13
 0.0007395094     1    10    11     3
 0.0000453466     1    10    11     7
 -0.0000776973     1    10    11    12
 -0.0507251806     1    10    12     1
 0.0021935824     1    10    12     2
 0.0016430951     1    10    12     4
 0.0004018584     1    10    12     6
 0.0006759713     1    10    12     8
 0.0002872792     1    10    12    11
 0.0000668945     1    10    12    13
 -0.0000035510     1    10    13     3
 0.0001108462     1    10    13     7
 -0.0001625815     1    10    13    12
 0.0004037496     1    10    14     5
 0.0001048607     1    10    14     9
 -0.1045179494     1    11     2     1
 0.0028559838     1    11     2     2
 -0.0010222152     1    11     2     4
 0.0003130414     1    11     2     6
 0.0004539522     1    11     2     8
 -0.0001326367     1    11     2    13
 -0.0011458092     1    11     3     3
 -0.0005202963     1    11     3     7
 0.0012351252     1    11     3    10
 0.0016576852     1    11     3    12
 0.1390431647     1    11     4     1
 -0.0123859575     1    11     4     2
 -0.0083599197     1    11     4     4
 -0.0009495597     1    11     4     6
 -0.0023883207     1    11     4     8
 0.0006739557     1    11     4    13
 -0.0068363180     1    11     5     5
 0.0022750910     1    11     5     9
 -0.0963276740     1    11     6     1
 0.0020187692     1    11     6     2
 0.0026087485     1    11     6     4
 0.0004152386     1    11     6     6
 0.0002950765     1    11     6     8
 0.0000311732     1    11     6    13
 -0.0000000001     1    11     7     1
 -0.0013451641     1    11     7     3
 -0.0001271203     1    11     7     7
 0.0000239047     1    11     7    10
 0.0008058080     1    11     7    12
 0.0157682870     1    11     8     1
 -0.0020870273     1    11     8     2
 -0.0008168690     1    11     8     4
 -0.0006602062     1    11     8     6
 -0.0009190004     1    11     8     8
 -0.0005166057     1    11     8    13
 0.0019048053     1    11     9     5
 -0.0007463702     1    11     9     9
 0.0019714335     1    11    10     3
 0.0000684789     1    11    10     7
 -0.0004215965     1    11    10    10
 -0.0003650080     1    11    10    12
 -0.3623553235     1    11    11     1
 0.0047296126     1    11    11     2
 0.0051877266     1    11    11     4
 0.0006321241     1    11    11     6
 0.0016748958     1    11    11     8
 0.0002274735     1    11    11    13
 -0.0000000001     1    11    12     1
 0.0038356375     1    11    12     3
 0.0008492984     1    11    12     7
 -0.0002872792     1    11    12    10
 -0.0020034431     1    11    12    12
 -0.0178553835     1    11    13     1
 0.0008750853     1    11    13     2
 0.0024511172     1    11    13     4
 0.0000887161     1    11    13     6
 -0.0000223248     1    11    13     8
 0.0004760180     1    11    13    13
 0.0006103602     1    11    14    14
 -0.0040258810     1    12     2     3
 -0.0002178166     1    12     2     7
 -0.0000733939     1    12     2    10
 0.1947911168     1    12     3     1
 -0.0168148434     1    12     3     2
 -0.0027843125     1    12     3     4
 -0.0020480074     1    12     3     6
 -0.0014170239     1    12     3     8
 -0.0016576852     1    12     3    11
 -0.0018999335     1    12     3    13
 0.0015207292     1    12     4     3
 0.0000840261     1    12     4     7
 0.0010350547     1    12     4    10
 0.0012585994     1    12     5    14
 0.0011864165     1    12     6     3
 -0.0004088742     1    12     6     7
 -0.0002378697     1    12     6    10
 0.1044815217     1    12     7     1
 -0.0035904773     1    12     7     2
 -0.0012383708     1    12     7     4
 -0.0011683360     1    12     7     6
 -0.0007758660     1    12     7     8
 -0.0008058080     1    12     7    11
 -0.0000340960     1    12     7    13
 -0.0000000002     1    12     8     1
 0.0017383067     1    12     8     3
 -0.0000000001     1    12     8     4
 0.0000194783     1    12     8     7
 -0.0006868995     1    12     8    10
 0.0004356902     1    12     9    14
 -0.0507251806     1    12    10     1
 0.0021255172     1    12    10     2
 0.0026814253     1    12    10     4
 0.0001640372     1    12    10     6
 -0.0000117924     1    12    10     8
 0.0003650080     1    12    10    11
 0.0002289939     1    12    10    13
 -0.0000000001     1    12    11     1
 0.0021373361     1    12    11     3
 0.0000446908     1    12    11     7
 0.0000776973     1    12    11    10
 -0.3842916448     1    12    12     1
 0.0082348076     1    12    12     2
 0.0034717280     1    12    12     4
 0.0018319421     1    12    12     6
 0.0019971093     1    12    12     8
 0.0020034431     1    12    12    11
 0.0004512714     1    12    12    13
 0.0000000001     1    12    13     1
 -0.0010989086     1    12    13     3
 0.0001577648     1    12    13     7
 0.0001625815     1    12    13    10
 0.0019339359     1    12    14     5
 0.0002135457     1    12    14     9
 -0.0348753883     1    13     2     1
 0.0007209599     1    13     2     2
 -0.0005434674     1    13     2     4
 0.0001329168     1    13     2     6
 0.0000564700     1    13     2     8
 0.0001326367     1    13     2    11
 -0.0029492451     1    13     3     3
 -0.0007390054     1    13     3     7
 0.0006982902     1    13     3    10
 0.0018999335     1    13     3    12
 0.0268037206     1    13     4     1
 -0.0031287148     1    13     4     2
 -0.0003494925     1    13     4     4
 -0.0004931982     1    13     4     6
 -0.0002358574     1    13     4     8
 -0.0006739557     1    13     4    11
 -0.0020175456     1    13     5     5
 0.0006466828     1    13     5     9
 -0.0297851017     1    13     6     1
 0.0004792833     1    13     6     2
 0.0006835104     1    13     6     4
 0.0000834240     1    13     6     6
 0.0000862468     1    13     6     8
 -0.0000311732     1    13     6    11
 -0.0000049809     1    13     7     3
 0.0000367971     1    13     7     7
 -0.0000342597     1    13     7    10
 0.0000340960     1    13     7    12
 0.0122252699     1    13     8     1
 -0.0002607336     1    13     8     2
 -0.0014624329     1    13     8     4
 0.0000586654     1    13     8     6
 -0.0004434210     1    13     8     8
 0.0005166057     1    13     8    11
 0.0009047741     1    13     9     5
 -0.0003414587     1    13     9     9
 0.0007011140     1    13    10     3
 0.0000759558     1    13    10     7
 -0.0001322142     1    13    10    10
 -0.0002289939     1    13    10    12
 -0.0178553835     1    13    11     1
 0.0010097184     1    13    11     2
 0.0017647303     1    13    11     4
 0.0000576801     1    13    11     6
 0.0004952727     1    13    11     8
 -0.0002274735     1    13    11    11
 0.0008165087     1    13    12     3
 0.0001903089     1    13    12     7
 -0.0000668945     1    13    12    10
 -0.0004512714     1    13    12    12
 -0.2983460313     1    13    13     1
 0.0000768013     1    13    13     2
 0.0017441692     1    13    13     4
 -0.0001792151     1    13    13     6
 0.0001973772     1    13    13     8
 -0.0004760180     1    13    13    11
 0.0001433490     1    13    14    14
 0.0024408140     1    14     3     5
 -0.0008546228     1    14     3     9
 0.0022130379     1    14     5     3
 0.0005179885     1    14     5     7
 -0.0003350703     1    14     5    10
 -0.0012585994     1    14     5    12
 -0.0005177134     1    14     7     5
 0.0001768227     1    14     7     9
 0.0008043409     1    14     9     3
 0.0001806260     1    14     9     7
 -0.0001164081     1    14     9    10
 -0.0004356902     1    14     9    12
 0.0000512625     1    14    10     5
 -0.0000123049     1    14    10     9
 0.0006543506     1    14    12     5
 -0.0002227857     1    14    12     9
 -0.2999975944     1    14    14     1
 -0.0001881729     1    14    14     2
 0.0015130979     1    14    14     4
 -0.0002546953     1    14    14     6
 0.0002632899     1    14    14     8
 -0.0006103602     1    14    14    11
 -0.0001433490     1    14    14    13
 -0.9844813257     2     1     1     2
 -0.0662960170     2     1     1     4
 -0.0879865626     2     1     1     6
 -0.0533829457     2     1     1     8
 -0.1045179494     2     1     1    11
 -0.0348753883     2     1     1    13
 -0.0312512100     2     1     3     3
 -0.0049166619     2     1     3     7
 0.0033432132     2     1     3    10
 0.0115529682     2     1     3    12
 0.0070627619     2     1     4     2
 -0.0360607246     2     1     4     4
 0.0043649737     2     1     4     6
 -0.0044326917     2     1     4     8
 0.0103086635     2     1     4    11
 0.0023166472     2     1     4    13
 -0.0407530281     2     1     5     5
 0.0099248836     2     1     5     9
 -0.0008713017     2     1     6     2
 0.0046092128     2     1     6     4
 -0.0007158687     2     1     6     6
 0.0005015094     2     1     6     8
 -0.0017244467     2     1     6    11
 -0.0003527865     2     1     6    13
 -0.0067074672     2     1     7     3
 -0.0013673735     2     1     7     7
 0.0008195278     2     1     7    10
 0.0033564380     2     1     7    12
 0.0017370780     2     1     8     2
 -0.0062902483     2     1     8     4
 0.0007860632     2     1     8     6
 -0.0014896884     2     1     8     8
 0.0025019727     2     1     8    11
 0.0003030640     2     1     8    13
 0.0129744738     2     1     9     5
 -0.0044806863     2     1     9     9
 0.0049347251     2     1    10     3
 0.0009130816     2     1    10     7
 -0.0007879748     2     1    10    10
 -0.0021935824     2     1    10    12
 -0.0028559838     2     1    11     2
 0.0123859575     2     1    11     4
 -0.0020187692     2     1    11     6
 0.0020870273     2     1    11     8
 -0.0047296126     2     1    11    11
 -0.0008750853     2     1    11    13
 0.0168148434     2     1    12     3
 0.0035904773     2     1    12     7
 -0.0021255172     2     1    12    10
 -0.0082348076     2     1    12    12
 -0.0007209599     2     1    13     2
 0.0031287148     2     1    13     4
 -0.0004792833     2     1    13     6
 0.0002607336     2     1    13     8
 -0.0010097184     2     1    13    11
 -0.0000768013     2     1    13    13
 0.0001881729     2     1    14    14
 0.9844813257     2     2     1     1
 -0.0070627619     2     2     1     4
 0.0008713017     2     2     1     6
 -0.0017370780     2     2     1     8