&FCI NORB=  9,NELEC= 10,MS2=0,
 ORBSYM=1,1,1,1,1,1,1,1,1
 ISYM=1,
&END
 0.9856970535     1     1     2     2
 0.0672687104     1     1     2     4
 -0.0950821068     1     1     2     6
 -0.0475822789     1     1     2     8
 0.8732439974     1     1     3     3
 0.1024020246     1     1     3     7
 -0.0377535801     1     1     3     9
 0.0672687104     1     1     4     2
 0.9505250558     1     1     4     4
 0.0491353711     1     1     4     6
 -0.1085453165     1     1     4     8
 0.9910681566     1     1     5     5
 -0.0950821068     1     1     6     2
 0.0491353711     1     1     6     4
 0.2794187807     1     1     6     6
 0.0146721050     1     1     6     8
 0.1024020246     1     1     7     3
 0.2408336042     1     1     7     7
 -0.0303526738     1     1     7     9
 -0.0475822789     1     1     8     2
 -0.1085453165     1     1     8     4
 0.0146721050     1     1     8     6
 0.3084790789     1     1     8     8
 -0.0377535801     1     1     9     3
 -0.0303526738     1     1     9     7
 0.3135940674     1     1     9     9
 -0.9856970535     1     2     2     1
 -0.0069945022     1     2     2     4
 -0.0007095764     1     2     2     6
 0.0022720518     1     2     2     8
 0.0310725373     1     2     3     3
 0.0080237238     1     2     3     7
 -0.0050312064     1     2     3     9
 -0.0672687104     1     2     4     1
 0.0357890306     1     2     4     4
 0.0051148942     1     2     4     6
 -0.0073183504     1     2     4     8
 0.0402810746     1     2     5     5
 0.0950821068     1     2     6     1
 0.0047317238     1     2     6     4
 0.0010588984     1     2     6     6
 -0.0011336909     1     2     6     8
 0.0057734094     1     2     7     3
 0.0021487072     1     2     7     7
 -0.0012278281     1     2     7     9
 0.0475822789     1     2     8     1
 -0.0051933902     1     2     8     4
 -0.0007534804     1     2     8     6
 0.0021175201     1     2     8     8
 -0.0032840548     1     2     9     3
 -0.0010709159     1     2     9     7
 0.0008459767     1     2     9     9
 0.0016241989     1     3     2     7
 -0.0014227941     1     3     2     9
 -0.8732439974     1     3     3     1
 -0.0310725373     1     3     3     2
 -0.0106275186     1     3     3     4
 0.0035749095     1     3     3     6
 0.0036862357     1     3     3     8
 -0.0006949600     1     3     4     7
 0.0028548734     1     3     4     9
 0.0015199370     1     3     6     7
 0.0003290834     1     3     6     9
 -0.1024020246     1     3     7     1
 -0.0057734094     1     3     7     2
 -0.0019984183     1     3     7     4
 0.0026328768     1     3     7     6
 0.0013910824     1     3     7     8
 0.0007687780     1     3     8     7
 0.0007691092     1     3     8     9
 0.0377535801     1     3     9     1
 0.0032840548     1     3     9     2
 0.0010411288     1     3     9     4
 -0.0008353806     1     3     9     6
 0.0010120056     1     3     9     8
 -0.0672687104     1     4     2     1
 0.0069945022     1     4     2     2
 -0.0001067059     1     4     2     6
 -0.0015313777     1     4     2     8
 0.0106275186     1     4     3     3
 0.0014489347     1     4     3     7
 0.0017871388     1     4     3     9
 -0.9505250558     1     4     4     1
 -0.0357890306     1     4     4     2
 0.0067695841     1     4     4     6
 0.0025634943     1     4     4     8
 0.0135972613     1     4     5     5
 -0.0491353711     1     4     6     1
 -0.0047317238     1     4     6     2
 0.0025921306     1     4     6     6
 -0.0007455822     1     4     6     8
 0.0019984183     1     4     7     3
 0.0014625707     1     4     7     7
 -0.0007824522     1     4     7     9
 0.1085453165     1     4     8     1
 0.0051933902     1     4     8     2
 -0.0024891071     1     4     8     6
 -0.0017953872     1     4     8     8
 -0.0010411288     1     4     9     3
 -0.0015044263     1     4     9     7
 -0.0001307553     1     4     9     9
 -0.9910681566     1     5     5     1
 -0.0402810746     1     5     5     2
 -0.0135972613     1     5     5     4
 0.0063426278     1     5     5     6
 0.0072272905     1     5     5     8
 0.0950821068     1     6     2     1
 0.0007095764     1     6     2     2
 0.0001067059     1     6     2     4
 -0.0003899174     1     6     2     8
 -0.0035749095     1     6     3     3
 -0.0010793092     1     6     3     7
 0.0011658244     1     6     3     9
 -0.0491353711     1     6     4     1
 -0.0051148942     1     6     4     2
 -0.0067695841     1     6     4     4
 0.0016979788     1     6     4     8
 -0.0063426278     1     6     5     5
 -0.2794187807     1     6     6     1
 -0.0010588984     1     6     6     2
 -0.0025921306     1     6     6     4
 0.0004723660     1     6     6     8
 -0.0026328768     1     6     7     3
 -0.0006569719     1     6     7     7
 0.0003781640     1     6     7     9
 -0.0146721050     1     6     8     1
 0.0007534804     1     6     8     2
 0.0024891071     1     6     8     4
 -0.0009689407     1     6     8     8
 0.0008353806     1     6     9     3
 0.0000526667     1     6     9     7
 -0.0001893946     1     6     9     9
 -0.0016241989     1     7     2     3
 -0.0001433280     1     7     2     9
 -0.1024020246     1     7     3     1
 -0.0080237238     1     7     3     2
 -0.0014489347     1     7     3     4
 0.0010793092     1     7     3     6
 0.0006372463     1     7     3     8
 0.0006949600     1     7     4     3
 0.0007036680     1     7     4     9
 -0.0015199370     1     7     6     3
 0.0003250183     1     7     6     9
 -0.2408336042     1     7     7     1
 -0.0021487072     1     7     7     2
 -0.0014625707     1     7     7     4
 0.0006569719     1     7     7     6
 0.0005991430     1     7     7     8
 -0.0007687780     1     7     8     3
 0.0003376682     1     7     8     9
 0.0303526738     1     7     9     1
 0.0010709159     1     7     9     2
 0.0015044263     1     7     9     4
 -0.0000526667     1     7     9     6
 0.0000070499     1     7     9     8
 0.0475822789     1     8     2     1
 -0.0022720518     1     8     2     2
 0.0015313777     1     8     2     4
 0.0003899174     1     8     2     6
 -0.0036862357     1     8     3     3
 -0.0006372463     1     8     3     7
 -0.0001863126     1     8     3     9
 0.1085453165     1     8     4     1
 0.0073183504     1     8     4     2
 -0.0025634943     1     8     4     4
 -0.0016979788     1     8     4     6
 -0.0072272905     1     8     5     5
 -0.0146721050     1     8     6     1
 0.0011336909     1     8     6     2
 0.0007455822     1     8     6     4
 -0.0004723660     1     8     6     6
 -0.0013910824     1     8     7     3
 -0.0005991430     1     8     7     7
 0.0003303973     1     8     7     9
 -0.3084790789     1     8     8     1
 -0.0021175201     1     8     8     2
 0.0017953872     1     8     8     4
 0.0009689407     1     8     8     6
 -0.0010120056     1     8     9     3
 -0.0000070499     1     8     9     7
 0.0002374580     1     8     9     9
 0.0014227941     1     9     2     3
 0.0001433280     1     9     2     7
 0.0377535801     1     9     3     1
 0.0050312064     1     9     3     2
 -0.0017871388     1     9     3     4
 -0.0011658244     1     9     3     6
 0.0001863126     1     9     3     8
 -0.0028548734     1     9     4     3
 -0.0007036680     1     9     4     7
 -0.0003290834     1     9     6     3
 -0.0003250183     1     9     6     7
 0.0303526738     1     9     7     1
 0.0012278281     1     9     7     2
 0.0007824522     1     9     7     4
 -0.0003781640     1     9     7     6
 -0.0003303973     1     9     7     8
 -0.0007691092     1     9     8     3
 -0.0003376682     1     9     8     7
 -0.3135940674     1     9     9     1
 -0.0008459767     1     9     9     2
 0.0001307553     1     9     9     4
 0.0001893946     1     9     9     6
 -0.0002374580     1     9     9     8
 -0.9856970535     2     1     1     2
 -0.0672687104     2     1     1     4
 0.0950821068     2     1     1     6
 0.0475822789     2     1     1     8
 0.0310725373     2     1     3     3
 0.0057734094     2     1     3     7
 -0.0032840548     2     1     3     9
 -0.0069945022     2     1     4     2
 0.0357890306     2     1     4     4
 0.0047317238     2     1     4     6
 -0.0051933902     2     1     4     8
 0.0402810746     2     1     5     5
 -0.0007095764     2     1     6     2
 0.0051148942     2     1     6     4
 0.0010588984     2     1     6     6
 -0.0007534804     2     1     6     8
 0.0080237238     2     1     7     3
 0.0021487072     2     1     7     7
 -0.0010709159     2     1     7     9
 0.0022720518     2     1     8     2
 -0.0073183504     2     1     8     4
 -0.0011336909     2     1     8     6
 0.0021175201     2     1     8     8
 -0.0050312064     2     1     9     3
 -0.0012278281     2     1     9     7
 0.0008459767     2     1     9     9
 0.9856970535     2     2     1     1
 0.0069945022     2     2     1     4
 0.0007095764     2     2     1     6
 -0.0022720518     2     2     1     8
 0.5293816244     2     2     3     3
 0.0440255815     2     2     3     7
 -0.0046665389     2     2     3     9
 0.0069945022     2     2     4     1
 0.5507079438     2     2     4     4
 0.0211677823     2     2     4     6
 -0.0475406346     2     2     4     8
 0.5751297802     2     2     5     5
 0.0007095764     2     2     6     1
 0.0211677823     2     2     6     4
 0.2554918607     2     2     6     6
 0.0071540203     2     2     6     8
 0.0440255815     2     2     7     3
 0.2242087164     2     2     7     7
 -0.0222430726     2     2     7     9
 -0.0022720518     2     2     8     1
 -0.0475406346     2     2     8     4
 0.0071540203     2     2     8     6
 0.2740099342     2     2     8     8
 -0.0046665389     2     2     9     3
 -0.0222430726     2     2     9     7
 0.2970293872     2     2     9     9
 -0.0016241989     2     3     1     7
 0.0014227941     2     3     1     9
 -0.0310725373     2     3     3     1
 -0.5293816244     2     3     3     2
 -0.0020349652     2     3     3     4
 0.0450802437     2     3     3     6
 0.0229718079     2     3     3     8
 0.0054660165     2     3     4     7
 -0.0194878766     2     3     4     9
 -0.0246460041     2     3     6     7
 -0.0000047478     2     3     6     9
 -0.0080237238     2     3     7     1
 -0.0440255815     2     3     7     2
 0.0014260493     2     3     7     4
 -0.0178922043     2     3     7     6
 -0.0032475081     2     3     7     8
 -0.0070266781     2     3     8     7
 -0.0154139809     2     3     8     9
 0.0050312064     2     3     9     1
 0.0046665389     2     3     9     2
 -0.0035943148     2     3     9     4
 -0.0002044816     2     3     9     6
 -0.0175999302     2     3     9     8
 0.0672687104     2     4     1     1
 -0.0069945022     2     4     1     2
 0.0001067059     2     4     1     6
 0.0015313777     2     4     1     8
 0.0020349652     2     4     3     3
 0.0042800465     2     4     3     7
 -0.0158329965     2     4     3     9
 -0.0357890306     2     4     4     1
 -0.5507079438     2     4     4     2
 0.0447053046     2     4     4     6
 0.0161129601     2     4     4     8
 0.0042940380     2     4     5     5
 -0.0051148942     2     4     6     1
 -0.0211677823     2     4     6     2
 -0.0099980870     2     4     6     6
 0.0157095698     2     4     6     8
 -0.0014260493     2     4     7     3
 -0.0092227130     2     4     7     7
 0.0078807514     2     4     7     9
 0.0073183504     2     4     8     1
 0.0475406346     2     4     8     2
 0.0073897516     2     4     8     6
 0.0147512259     2     4     8     8
 0.0035943148     2     4     9     3
 0.0102434044     2     4     9     7
 0.0079004596     2     4     9     9
 -0.0402810746     2     5     5     1
 -0.5751297802     2     5     5     2
 -0.0042940380     2     5     5     4
 0.0451614609     2     5     5     6
 0.0113222215     2     5     5     8
 -0.0950821068     2     6     1     1
 -0.0007095764     2     6     1     2
 -0.0001067059     2     6     1     4
 0.0003899174     2     6     1     8
 -0.0450802437     2     6     3     3
 -0.0064033701     2     6     3     7
 -0.0003019652     2     6     3     9
 -0.0047317238     2     6     4     1
 -0.0211677823     2     6     4     2
 -0.0447053046     2     6     4     4
 0.0077396071     2     6     4     8
 -0.0451614609     2     6     5     5
 -0.0010588984     2     6     6     1
 -0.2554918607     2     6     6     2
 0.0099980870     2     6     6     4
 0.0009303698     2     6     6     8
 0.0178922043     2     6     7     3
 -0.0030897066     2     6     7     7
 0.0034343809     2     6     7     9
 0.0011336909     2     6     8     1
 -0.0071540203     2     6     8     2
 -0.0073897516     2     6     8     4
 -0.0063199072     2     6     8     8
 0.0002044816     2     6     9     3
 0.0018205653     2     6     9     7
 -0.0095746799     2     6     9     9
 0.0016241989     2     7     1     3
 0.0001433280     2     7     1     9
 -0.0057734094     2     7     3     1
 -0.0440255815     2     7     3     2
 -0.0042800465     2     7     3     4
 0.0064033701     2     7     3     6
 0.0034086461     2     7     3     8
 -0.0054660165     2     7     4     3
 -0.0021261811     2     7     4     9
 0.0246460041     2     7     6     3
 0.0016159899     2     7     6     9
 -0.0021487072     2     7     7     1
 -0.2242087164     2     7     7     2
 0.0092227130     2     7     7     4
 0.0030897066     2     7     7     6
 -0.0001356851     2     7     7     8
 0.0070266781     2     7     8     3
 -0.0013730957     2     7     8     9
 0.0012278281     2     7     9     1
 0.0222430726     2     7     9     2
 -0.0102434044     2     7     9     4
 -0.0018205653     2     7     9     6
 -0.0012268081     2     7     9     8
 -0.0475822789     2     8     1     1
 0.0022720518     2     8     1     2
 -0.0015313777     2     8     1     4
 -0.0003899174     2     8     1     6
 -0.0229718079     2     8     3     3
 -0.0034086461     2     8     3     7
 0.0015520448     2     8     3     9
 0.0051933902     2     8     4     1
 0.0475406346     2     8     4     2
 -0.0161129601     2     8     4     4
 -0.0077396071     2     8     4     6
 -0.0113222215     2     8     5     5
 0.0007534804     2     8     6     1
 -0.0071540203     2     8     6     2
 -0.0157095698     2     8     6     4
 -0.0009303698     2     8     6     6
 0.0032475081     2     8     7     3
 0.0001356851     2     8     7     7
 -0.0001771557     2     8     7     9
 -0.0021175201     2     8     8     1
 -0.2740099342     2     8     8     2
 -0.0147512259     2     8     8     4
 0.0063199072     2     8     8     6
 0.0175999302     2     8     9     3
 0.0012268081     2     8     9     7
 -0.0032511160     2     8     9     9
 -0.0014227941     2     9     1     3
 -0.0001433280     2     9     1     7
 0.0032840548     2     9     3     1
 0.0046665389     2     9     3     2
 0.0158329965     2     9     3     4
 0.0003019652     2     9     3     6
 -0.0015520448     2     9     3     8
 0.0194878766     2     9     4     3
 0.0021261811     2     9     4     7
 0.0000047478     2     9     6     3
 -0.0016159899     2     9     6     7
 0.0010709159     2     9     7     1
 0.0222430726     2     9     7     2
 -0.0078807514     2     9     7     4
 -0.0034343809     2     9     7     6
 0.0001771557     2     9     7     8
 0.0154139809     2     9     8     3
 0.0013730957     2     9     8     7
 -0.0008459767     2     9     9     1
 -0.2970293872     2     9     9     2
 -0.0079004596     2     9     9     4
 0.0095746799     2     9     9     6
 0.0032511160     2     9     9     8
 -0.8732439974     3     1     1     3
 -0.1024020246     3     1     1     7
 0.0377535801     3     1     1     9
 -0.0310725373     3     1     2     3
 -0.0057734094     3     1     2     7
 0.0032840548     3     1     2     9
 -0.0106275186     3     1     4     3
 -0.0019984183     3     1     4     7
 0.0010411288     3     1     4     9
 0.0035749095     3     1     6     3
 0.0026328768     3     1     6     7
 -0.0008353806     3     1     6     9
 0.0016241989     3     1     7     2
 -0.0006949600     3     1     7     4
 0.0015199370     3     1     7     6
 0.0007687780     3     1     7     8
 0.0036862357     3     1     8     3
 0.0013910824     3     1     8     7
 0.0010120056     3     1     8     9
 -0.0014227941     3     1     9     2
 0.0028548734     3     1     9     4
 0.0003290834     3     1     9     6
 0.0007691092     3     1     9     8
 -0.0310725373     3     2     1     3
 -0.0080237238     3     2     1     7
 0.0050312064     3     2     1     9
 -0.5293816244     3     2     2     3
 -0.0440255815     3     2     2     7
 0.0046665389     3     2     2     9
 -0.0020349652     3     2     4     3
 0.0014260493     3     2     4     7
 -0.0035943148     3     2     4     9
 0.0450802437     3     2     6     3
 -0.0178922043     3     2     6     7
 -0.0002044816     3     2     6     9
 -0.0016241989     3     2     7     1
 0.0054660165     3     2     7     4
 -0.0246460041     3     2     7     6
 -0.0070266781     3     2     7     8
 0.0229718079     3     2     8     3
 -0.0032475081     3     2     8     7
 -0.0175999302     3     2     8     9
 0.0014227941     3     2     9     1
 -0.0194878766     3     2     9     4
 -0.0000047478     3     2     9     6
 -0.0154139809     3     2     9     8
 0.8732439974     3     3     1     1
 0.0310725373     3     3     1     2
 0.0106275186     3     3     1     4
 -0.0035749095     3     3     1     6
 -0.0036862357     3     3     1     8
 0.0310725373     3     3     2     1
 0.5293816244     3     3     2     2
 0.0020349652     3     3     2     4
 -0.0450802437     3     3     2     6
 -0.0229718079     3     3     2     8
 0.0106275186     3     3     4     1
 0.0020349652     3     3     4     2
 0.5613046046     3     3     4     4
 0.0241515532     3     3     4     6
 -0.0490150036     3     3     4     8
 0.5818197880     3     3     5     5
 -0.0035749095     3     3     6     1
 -0.0450802437     3     3     6     2
 0.0241515532     3     3     6     4
 0.2578900758     3     3     6     6
 0.0081408439     3     3     6     8
 0.2193960049     3     3     7     7
 -0.0183917930     3     3     7     9
 -0.0036862357     3     3     8     1
 -0.0229718079     3     3     8     2
 -0.0490150036     3     3     8     4
 0.0081408439     3     3     8     6
 0.2686724797     3     3     8     8
 -0.0183917930     3     3     9     7
 0.2878230575     3     3     9     9
 -0.0106275186     3     4     1     3
 -0.0014489347     3     4     1     7
 -0.0017871388     3     4     1     9
 -0.0020349652     3     4     2     3
 -0.0042800465     3     4     2     7
 0.0158329965     3     4     2     9
 -0.5613046046     3     4     4     3
 -0.0531943318     3     4     4     7
 0.0183070707     3     4     4     9
 -0.0241515532     3     4     6     3
 0.0016850280     3     4     6     7
 -0.0010488782     3     4     6     9
 0.0006949600     3     4     7     1
 -0.0054660165     3     4     7     2
 0.0059608347     3     4     7     6
 -0.0018865065     3     4     7     8
 0.0490150036     3     4     8     3
 0.0077015396     3     4     8     7
 -0.0044374314     3     4     8     9
 -0.0028548734     3     4     9     1
 0.0194878766     3     4     9     2
 -0.0022414781     3     4     9     6
 0.0025030247     3     4     9     8
 -0.5818197880     3     5     5     3
 -0.0555032461     3     5     5     7
 0.0131605350     3     5     5     9
 0.0035749095     3     6     1     3
 0.0010793092     3     6     1     7
 -0.0011658244     3     6     1     9
 0.0450802437     3     6     2     3
 0.0064033701     3     6     2     7
 0.0003019652     3     6     2     9
 -0.0241515532     3     6     4     3
 -0.0042052544     3     6     4     7
 0.0008351729     3     6     4     9
 -0.2578900758     3     6     6     3
 -0.0145081954     3     6     6     7
 -0.0074253131     3     6     6     9
 -0.0015199370     3     6     7     1
 0.0246460041     3     6     7     2
 -0.0059608347     3     6     7     4
 0.0060817726     3     6     7     8
 -0.0081408439     3     6     8     3
 -0.0038400067     3     6     8     7
 0.0023669141     3     6     8     9
 -0.0003290834     3     6     9     1
 0.0000047478     3     6     9     2
 0.0022414781     3     6     9     4
 -0.0048766211     3     6     9     8
 0.1024020246     3     7     1     1
 0.0080237238     3     7     1     2
 0.0014489347     3     7     1     4
 -0.0010793092     3     7     1     6
 -0.0006372463     3     7     1     8
 0.0057734094     3     7     2     1
 0.0440255815     3     7     2     2
 0.0042800465     3     7     2     4
 -0.0064033701     3     7     2     6
 -0.0034086461     3     7     2     8
 0.0019984183     3     7     4     1
 -0.0014260493     3     7     4     2
 0.0531943318     3     7     4     4
 0.0042052544     3     7     4     6
 -0.0091479612     3     7     4     8
 0.0555032461     3     7     5     5
 -0.0026328768     3     7     6     1
 0.0178922043     3     7     6     2
 -0.0016850280     3     7     6     4
 0.0145081954     3     7     6     6
 0.0098840501     3     7     6     8
 -0.2193960049     3     7     7     3
 -0.0066648632     3     7     7     9
 -0.0013910824     3     7     8     1
 0.0032475081     3     7     8     2
 -0.0077015396     3     7     8     4
 0.0038400067     3     7     8     6
 0.0134605616     3     7     8     8
 0.0183917930     3     7     9     3
 0.0166146000     3     7     9     9
 0.0036862357     3     8     1     3
 0.0006372463     3     8     1     7
 0.0001863126     3     8     1     9
 0.0229718079     3     8     2     3
 0.0034086461     3     8     2     7
 -0.0015520448     3     8     2     9
 0.0490150036     3     8     4     3
 0.0091479612     3     8     4     7
 -0.0062658276     3     8     4     9
 -0.0081408439     3     8     6     3
 -0.0098840501     3     8     6     7
 0.0071955617     3     8     6     9
 -0.0007687780     3     8     7     1
 0.0070266781     3     8     7     2
 0.0018865065     3     8     7     4
 -0.0060817726     3     8     7     6
 -0.2686724797     3     8     8     3
 -0.0134605616     3     8     8     7
 0.0032021748     3     8     8     9
 -0.0007691092     3     8     9     1
 0.0154139809     3     8     9     2
 -0.0025030247     3     8     9     4
 0.0048766211     3     8     9     6
 -0.0377535801     3     9     1     1
 -0.0050312064     3     9     1     2
 0.0017871388     3     9     1     4
 0.0011658244     3     9     1     6
 -0.0001863126     3     9     1     8
 -0.0032840548     3     9     2     1
 -0.0046665389     3     9     2     2
 -0.0158329965     3     9     2     4
 -0.0003019652     3     9     2     6
 0.0015520448     3     9     2     8
 -0.0010411288     3     9     4     1
 0.0035943148     3     9     4     2
 -0.0183070707     3     9     4     4
 -0.0008351729     3     9     4     6
 0.0062658276     3     9     4     8
 -0.0131605350     3     9     5     5
 0.0008353806     3     9     6     1
 0.0002044816     3     9     6     2
 0.0010488782     3     9     6     4
 0.0074253131     3     9     6     6
 -0.0071955617     3     9     6     8
 0.0183917930     3     9     7     3
 0.0066648632     3     9     7     7
 -0.0010120056     3     9     8     1
 0.0175999302     3     9     8     2
 0.0044374314     3     9     8     4
 -0.0023669141     3     9     8     6
 -0.0032021748     3     9     8     8
 -0.2878230575     3     9     9     3
 -0.0166146000     3     9     9     7
 -0.0672687104     4     1     1     2
 -0.9505250558     4     1     1     4
 -0.0491353711     4     1     1     6
 0.1085453165     4     1     1     8
 0.0069945022     4     1     2     2
 -0.0357890306     4     1     2     4
 -0.0047317238     4     1     2     6
 0.0051933902     4     1     2     8
 0.0106275186     4     1     3     3
 0.0019984183     4     1     3     7
 -0.0010411288     4     1     3     9
 0.0135972613     4     1     5     5
 -0.0001067059     4     1     6     2
 0.0067695841     4     1     6     4
 0.0025921306     4     1     6     6
 -0.0024891071     4     1     6     8
 0.0014489347     4     1     7     3
 0.0014625707     4     1     7     7
 -0.0015044263     4     1     7     9
 -0.0015313777     4     1     8     2
 0.0025634943     4     1     8     4
 -0.0007455822     4     1     8     6
 -0.0017953872     4     1     8     8
 0.0017871388     4     1     9     3
 -0.0007824522     4     1     9     7
 -0.0001307553     4     1     9     9
 0.0672687104     4     2     1     1
 -0.0357890306     4     2     1     4
 -0.0051148942     4     2     1     6
 0.0073183504     4     2     1     8
 -0.0069945022     4     2     2     1
 -0.5507079438     4     2     2     4
 -0.0211677823     4     2     2     6
 0.0475406346     4     2     2     8
 0.0020349652     4     2     3     3
 -0.0014260493     4     2     3     7
 0.0035943148     4     2     3     9
 0.0042940380     4     2     5     5
 0.0001067059     4     2     6     1
 0.0447053046     4     2     6     4
 -0.0099980870     4     2     6     6
 0.0073897516     4     2     6     8
 0.0042800465     4     2     7     3
 -0.0092227130     4     2     7     7
 0.0102434044     4     2     7     9
 0.0015313777     4     2     8     1
 0.0161129601     4     2     8     4
 0.0157095698     4     2     8     6
 0.0147512259     4     2     8     8
 -0.0158329965     4     2     9     3
 0.0078807514     4     2     9     7
 0.0079004596     4     2     9     9
 0.0006949600     4     3     1     7
 -0.0028548734     4     3     1     9
 -0.0054660165     4     3     2     7
 0.0194878766     4     3     2     9
 -0.0106275186     4     3     3     1
 -0.0020349652     4     3     3     2
 -0.5613046046     4     3     3     4
 -0.0241515532     4     3     3     6
 0.0490150036     4     3     3     8
 0.0059608347     4     3     6     7
 -0.0022414781     4     3     6     9
 -0.0014489347     4     3     7     1
 -0.0042800465     4     3     7     2
 -0.0531943318     4     3     7     4
 0.0016850280     4     3     7     6
 0.0077015396     4     3     7     8
 -0.0018865065     4     3     8     7
 0.0025030247     4     3     8     9
 -0.0017871388     4     3     9     1
 0.0158329965     4     3     9     2
 0.0183070707     4     3     9     4
 -0.0010488782     4     3     9     6
 -0.0044374314     4     3     9     8
 0.9505250558     4     4     1     1
 0.0357890306     4     4     1     2
 -0.0067695841     4     4     1     6
 -0.0025634943     4     4     1     8
 0.0357890306     4     4     2     1
 0.5507079438     4     4     2     2
 -0.0447053046     4     4     2     6
 -0.0161129601     4     4     2     8
 0.5613046046     4     4     3     3
 0.0531943318     4     4     3     7
 -0.0183070707     4     4     3     9
 0.5997516872     4     4     5     5
 -0.0067695841     4     4     6     1
 -0.0447053046     4     4     6     2
 0.2469679136     4     4     6     6
 0.0193534272     4     4     6     8
 0.0531943318     4     4     7     3
 0.2174478389     4     4     7     7
 -0.0163036560     4     4     7     9
 -0.0025634943     4     4     8     1
 -0.0161129601     4     4     8     2
 0.0193534272     4     4     8     6
 0.2769337374     4     4     8     8
 -0.0183070707     4     4     9     3
 -0.0163036560     4     4     9     7
 0.2914958372     4     4     9     9
 -0.0135972613     4     5     5     1
 -0.0042940380     4     5     5     2
 -0.5997516872     4     5     5     4
 -0.0280721090     4     5     5     6
 0.0545872144     4     5     5     8
 0.0491353711     4     6     1     1
 0.0051148942     4     6     1     2
 0.0067695841     4     6     1     4
 -0.0016979788     4     6     1     8
 0.0047317238     4     6     2     1
 0.0211677823     4     6     2     2
 0.0447053046     4     6     2     4
 -0.0077396071     4     6     2     8
 0.0241515532     4     6     3     3
 0.0042052544     4     6     3     7
 -0.0008351729     4     6     3     9
 0.0280721090     4     6     5     5
 -0.0025921306     4     6     6     1
 0.0099980870     4     6     6     2
 -0.2469679136     4     6     6     4
 0.0145826077     4     6     6     8
 -0.0016850280     4     6     7     3
 0.0024015747     4     6     7     7
 -0.0101175584     4     6     7     9
 0.0007455822     4     6     8     1
 -0.0157095698     4     6     8     2
 -0.0193534272     4     6     8     4
 0.0083685003     4     6     8     8
 0.0010488782     4     6     9     3
 0.0023105256     4     6     9     7
 0.0068226967     4     6     9     9
 -0.0006949600     4     7     1     3
 -0.0007036680     4     7     1     9
 0.0054660165     4     7     2     3
 0.0021261811     4     7     2     9
 -0.0019984183     4     7     3     1
 0.0014260493     4     7     3     2
 -0.0531943318     4     7     3     4
 -0.0042052544     4     7     3     6
 0.0091479612     4     7     3     8
 -0.0059608347     4     7     6     3
 -0.0124697063     4     7     6     9
 -0.0014625707     4     7     7     1
 0.0092227130     4     7     7     2
 -0.2174478389     4     7     7     4
 -0.0024015747     4     7     7     6
 0.0071844650     4     7     7     8
 0.0018865065     4     7     8     3
 -0.0050945532     4     7     8     9
 0.0007824522     4     7     9     1
 -0.0078807514     4     7     9     2
 0.0163036560     4     7     9     4
 -0.0023105256     4     7     9     6
 -0.0058889489     4     7     9     8
 -0.1085453165     4     8     1     1
 -0.0073183504     4     8     1     2
 0.0025634943     4     8     1     4
 0.0016979788     4     8     1     6
 -0.0051933902     4     8     2     1
 -0.0475406346     4     8     2     2