&FCI NORB=  9,NELEC= 10,MS2=0,
 ORBSYM=1,1,1,1,1,1,1,1,1
 ISYM=1,
&END
 0.9850848347     1     1     2     2
 0.0665696313     1     1     2     4
 -0.0967058767     1     1     2     6
 -0.0488596930     1     1     2     8
 0.8722929072     1     1     3     3
 0.1039287469     1     1     3     7
 -0.0385468025     1     1     3     9
 0.0665696313     1     1     4     2
 0.9487145619     1     1     4     4
 0.0500147428     1     1     4     6
 -0.1102992873     1     1     4     8
 0.9892630000     1     1     5     5
 -0.0967058767     1     1     6     2
 0.0500147428     1     1     6     4
 0.2799618953     1     1     6     6
 0.0146905461     1     1     6     8
 0.1039287469     1     1     7     3
 0.2412299067     1     1     7     7
 -0.0305949709     1     1     7     9
 -0.0488596930     1     1     8     2
 -0.1102992873     1     1     8     4
 0.0146905461     1     1     8     6
 0.3092461451     1     1     8     8
 -0.0385468025     1     1     9     3
 -0.0305949709     1     1     9     7
 0.3143438820     1     1     9     9
 -0.9850848347     1     2     2     1
 -0.0071105031     1     2     2     4
 -0.0008570000     1     2     2     6
 0.0021666927     1     2     2     8
 0.0313673235     1     2     3     3
 0.0081188476     1     2     3     7
 -0.0050566850     1     2     3     9
 -0.0665696313     1     2     4     1
 0.0360244253     1     2     4     4
 0.0051511716     1     2     4     6
 -0.0074121671     1     2     4     8
 0.0404812554     1     2     5     5
 0.0967058767     1     2     6     1
 0.0047208645     1     2     6     4
 0.0010162945     1     2     6     6
 -0.0011247623     1     2     6     8
 0.0057585630     1     2     7     3
 0.0021088681     1     2     7     7
 -0.0012060286     1     2     7     9
 0.0488596930     1     2     8     1
 -0.0051773846     1     2     8     4
 -0.0007534332     1     2     8     6
 0.0020800649     1     2     8     8
 -0.0032698223     1     2     9     3
 -0.0010531113     1     2     9     7
 0.0008730054     1     2     9     9
 0.0016470093     1     3     2     7
 -0.0014285235     1     3     2     9
 -0.8722929072     1     3     3     1
 -0.0313673235     1     3     3     2
 -0.0106298288     1     3     3     4
 0.0035257439     1     3     3     6
 0.0036407579     1     3     3     8
 -0.0006733624     1     3     4     7
 0.0027769283     1     3     4     9
 0.0015063071     1     3     6     7
 0.0003174280     1     3     6     9
 -0.1039287469     1     3     7     1
 -0.0057585630     1     3     7     2
 -0.0019821186     1     3     7     4
 0.0026219270     1     3     7     6
 0.0013862587     1     3     7     8
 0.0007606717     1     3     8     7
 0.0007658554     1     3     8     9
 0.0385468025     1     3     9     1
 0.0032698223     1     3     9     2
 0.0010278664     1     3     9     4
 -0.0008369713     1     3     9     6
 0.0010034207     1     3     9     8
 -0.0665696313     1     4     2     1
 0.0071105031     1     4     2     2
 -0.0001159161     1     4     2     6
 -0.0015687995     1     4     2     8
 0.0106298288     1     4     3     3
 0.0014647869     1     4     3     7
 0.0017251164     1     4     3     9
 -0.9487145619     1     4     4     1
 -0.0360244253     1     4     4     2
 0.0066989079     1     4     4     6
 0.0024557381     1     4     4     8
 0.0135480513     1     4     5     5
 -0.0500147428     1     4     6     1
 -0.0047208645     1     4     6     2
 0.0025736588     1     4     6     6
 -0.0007328769     1     4     6     8
 0.0019821186     1     4     7     3
 0.0014451034     1     4     7     7
 -0.0007793035     1     4     7     9
 0.1102992873     1     4     8     1
 0.0051773846     1     4     8     2
 -0.0024834690     1     4     8     6
 -0.0017902946     1     4     8     8
 -0.0010278664     1     4     9     3
 -0.0014917437     1     4     9     7
 -0.0001123095     1     4     9     9
 -0.9892630000     1     5     5     1
 -0.0404812554     1     5     5     2
 -0.0135480513     1     5     5     4
 0.0062425025     1     5     5     6
 0.0070862329     1     5     5     8
 0.0967058767     1     6     2     1
 0.0008570000     1     6     2     2
 0.0001159161     1     6     2     4
 -0.0003900663     1     6     2     8
 -0.0035257439     1     6     3     3
 -0.0010898434     1     6     3     7
 0.0011644653     1     6     3     9
 -0.0500147428     1     6     4     1
 -0.0051511716     1     6     4     2
 -0.0066989079     1     6     4     4
 0.0017131780     1     6     4     8
 -0.0062425025     1     6     5     5
 -0.2799618953     1     6     6     1
 -0.0010162945     1     6     6     2
 -0.0025736588     1     6     6     4
 0.0004734940     1     6     6     8
 -0.0026219270     1     6     7     3
 -0.0006535297     1     6     7     7
 0.0003766466     1     6     7     9
 -0.0146905461     1     6     8     1
 0.0007534332     1     6     8     2
 0.0024834690     1     6     8     4
 -0.0009679505     1     6     8     8
 0.0008369713     1     6     9     3
 0.0000536734     1     6     9     7
 -0.0001988037     1     6     9     9
 -0.0016470093     1     7     2     3
 -0.0001406251     1     7     2     9
 -0.1039287469     1     7     3     1
 -0.0081188476     1     7     3     2
 -0.0014647869     1     7     3     4
 0.0010898434     1     7     3     6
 0.0006487607     1     7     3     8
 0.0006733624     1     7     4     3
 0.0006976958     1     7     4     9
 -0.0015063071     1     7     6     3
 0.0003221756     1     7     6     9
 -0.2412299067     1     7     7     1
 -0.0021088681     1     7     7     2
 -0.0014451034     1     7     7     4
 0.0006535297     1     7     7     6
 0.0005978982     1     7     7     8
 -0.0007606717     1     7     8     3
 0.0003334447     1     7     8     9
 0.0305949709     1     7     9     1
 0.0010531113     1     7     9     2
 0.0014917437     1     7     9     4
 -0.0000536734     1     7     9     6
 0.0000051444     1     7     9     8
 0.0488596930     1     8     2     1
 -0.0021666927     1     8     2     2
 0.0015687995     1     8     2     4
 0.0003900663     1     8     2     6
 -0.0036407579     1     8     3     3
 -0.0006487607     1     8     3     7
 -0.0001754476     1     8     3     9
 0.1102992873     1     8     4     1
 0.0074121671     1     8     4     2
 -0.0024557381     1     8     4     4
 -0.0017131780     1     8     4     6
 -0.0070862329     1     8     5     5
 -0.0146905461     1     8     6     1
 0.0011247623     1     8     6     2
 0.0007328769     1     8     6     4
 -0.0004734940     1     8     6     6
 -0.0013862587     1     8     7     3
 -0.0005978982     1     8     7     7
 0.0003284749     1     8     7     9
 -0.3092461451     1     8     8     1
 -0.0020800649     1     8     8     2
 0.0017902946     1     8     8     4
 0.0009679505     1     8     8     6
 -0.0010034207     1     8     9     3
 -0.0000051444     1     8     9     7
 0.0002272495     1     8     9     9
 0.0014285235     1     9     2     3
 0.0001406251     1     9     2     7
 0.0385468025     1     9     3     1
 0.0050566850     1     9     3     2
 -0.0017251164     1     9     3     4
 -0.0011644653     1     9     3     6
 0.0001754476     1     9     3     8
 -0.0027769283     1     9     4     3
 -0.0006976958     1     9     4     7
 -0.0003174280     1     9     6     3
 -0.0003221756     1     9     6     7
 0.0305949709     1     9     7     1
 0.0012060286     1     9     7     2
 0.0007793035     1     9     7     4
 -0.0003766466     1     9     7     6
 -0.0003284749     1     9     7     8
 -0.0007658554     1     9     8     3
 -0.0003334447     1     9     8     7
 -0.3143438820     1     9     9     1
 -0.0008730054     1     9     9     2
 0.0001123095     1     9     9     4
 0.0001988037     1     9     9     6
 -0.0002272495     1     9     9     8
 -0.9850848347     2     1     1     2
 -0.0665696313     2     1     1     4
 0.0967058767     2     1     1     6
 0.0488596930     2     1     1     8
 0.0313673235     2     1     3     3
 0.0057585630     2     1     3     7
 -0.0032698223     2     1     3     9
 -0.0071105031     2     1     4     2
 0.0360244253     2     1     4     4
 0.0047208645     2     1     4     6
 -0.0051773846     2     1     4     8
 0.0404812554     2     1     5     5
 -0.0008570000     2     1     6     2
 0.0051511716     2     1     6     4
 0.0010162945     2     1     6     6
 -0.0007534332     2     1     6     8
 0.0081188476     2     1     7     3
 0.0021088681     2     1     7     7
 -0.0010531113     2     1     7     9
 0.0021666927     2     1     8     2
 -0.0074121671     2     1     8     4
 -0.0011247623     2     1     8     6
 0.0020800649     2     1     8     8
 -0.0050566850     2     1     9     3
 -0.0012060286     2     1     9     7
 0.0008730054     2     1     9     9
 0.9850848347     2     2     1     1
 0.0071105031     2     2     1     4
 0.0008570000     2     2     1     6
 -0.0021666927     2     2     1     8
 0.5292330783     2     2     3     3
 0.0439639465     2     2     3     7
 -0.0049036362     2     2     3     9
 0.0071105031     2     2     4     1
 0.5504107336     2     2     4     4
 0.0212083462     2     2     4     6
 -0.0474303450     2     2     4     8
 0.5748830110     2     2     5     5
 0.0008570000     2     2     6     1
 0.0212083462     2     2     6     4
 0.2558452009     2     2     6     6
 0.0071822335     2     2     6     8
 0.0439639465     2     2     7     3
 0.2243386725     2     2     7     7
 -0.0223227385     2     2     7     9
 -0.0021666927     2     2     8     1
 -0.0474303450     2     2     8     4
 0.0071822335     2     2     8     6
 0.2741423742     2     2     8     8
 -0.0049036362     2     2     9     3
 -0.0223227385     2     2     9     7
 0.2971759614     2     2     9     9
 -0.0016470093     2     3     1     7
 0.0014285235     2     3     1     9
 -0.0313673235     2     3     3     1
 -0.5292330783     2     3     3     2
 -0.0016615854     2     3     3     4
 0.0451201521     2     3     3     6
 0.0229436203     2     3     3     8
 0.0056021421     2     3     4     7
 -0.0195425136     2     3     4     9
 -0.0247058056     2     3     6     7
 0.0000617123     2     3     6     9
 -0.0081188476     2     3     7     1
 -0.0439639465     2     3     7     2
 0.0013476220     2     3     7     4
 -0.0180751405     2     3     7     6
 -0.0032472466     2     3     7     8
 -0.0070859794     2     3     8     7
 -0.0152989316     2     3     8     9
 0.0050566850     2     3     9     1
 0.0049036362     2     3     9     2
 -0.0036470219     2     3     9     4
 -0.0000634547     2     3     9     6
 -0.0174969527     2     3     9     8
 0.0665696313     2     4     1     1
 -0.0071105031     2     4     1     2
 0.0001159161     2     4     1     6
 0.0015687995     2     4     1     8
 0.0016615854     2     4     3     3
 0.0045314803     2     4     3     7
 -0.0158726485     2     4     3     9
 -0.0360244253     2     4     4     1
 -0.5504107336     2     4     4     2
 0.0449051215     2     4     4     6
 0.0159365161     2     4     4     8
 0.0037196032     2     4     5     5
 -0.0051511716     2     4     6     1
 -0.0212083462     2     4     6     2
 -0.0100900514     2     4     6     6
 0.0156933138     2     4     6     8
 -0.0013476220     2     4     7     3
 -0.0091590256     2     4     7     7
 0.0078547528     2     4     7     9
 0.0074121671     2     4     8     1
 0.0474303450     2     4     8     2
 0.0074217683     2     4     8     6
 0.0148196863     2     4     8     8
 0.0036470219     2     4     9     3
 0.0102192630     2     4     9     7
 0.0078778610     2     4     9     9
 -0.0404812554     2     5     5     1
 -0.5748830110     2     5     5     2
 -0.0037196032     2     5     5     4
 0.0452029347     2     5     5     6
 0.0113709320     2     5     5     8
 -0.0967058767     2     6     1     1
 -0.0008570000     2     6     1     2
 -0.0001159161     2     6     1     4
 0.0003900663     2     6     1     8
 -0.0451201521     2     6     3     3
 -0.0066223016     2     6     3     7
 -0.0001749042     2     6     3     9
 -0.0047208645     2     6     4     1
 -0.0212083462     2     6     4     2
 -0.0449051215     2     6     4     4
 0.0081085792     2     6     4     8
 -0.0452029347     2     6     5     5
 -0.0010162945     2     6     6     1
 -0.2558452009     2     6     6     2
 0.0100900514     2     6     6     4
 0.0009699689     2     6     6     8
 0.0180751405     2     6     7     3
 -0.0031056154     2     6     7     7
 0.0034358809     2     6     7     9
 0.0011247623     2     6     8     1
 -0.0071822335     2     6     8     2
 -0.0074217683     2     6     8     4
 -0.0063701969     2     6     8     8
 0.0000634547     2     6     9     3
 0.0018539241     2     6     9     7
 -0.0096226777     2     6     9     9
 0.0016470093     2     7     1     3
 0.0001406251     2     7     1     9
 -0.0057585630     2     7     3     1
 -0.0439639465     2     7     3     2
 -0.0045314803     2     7     3     4
 0.0066223016     2     7     3     6
 0.0036246014     2     7     3     8
 -0.0056021421     2     7     4     3
 -0.0021491645     2     7     4     9
 0.0247058056     2     7     6     3
 0.0015766441     2     7     6     9
 -0.0021088681     2     7     7     1
 -0.2243386725     2     7     7     2
 0.0091590256     2     7     7     4
 0.0031056154     2     7     7     6
 -0.0001015976     2     7     7     8
 0.0070859794     2     7     8     3
 -0.0013889135     2     7     8     9
 0.0012060286     2     7     9     1
 0.0223227385     2     7     9     2
 -0.0102192630     2     7     9     4
 -0.0018539241     2     7     9     6
 -0.0012614185     2     7     9     8
 -0.0488596930     2     8     1     1
 0.0021666927     2     8     1     2
 -0.0015687995     2     8     1     4
 -0.0003900663     2     8     1     6
 -0.0229436203     2     8     3     3
 -0.0036246014     2     8     3     7
 0.0016847027     2     8     3     9
 0.0051773846     2     8     4     1
 0.0474303450     2     8     4     2
 -0.0159365161     2     8     4     4
 -0.0081085792     2     8     4     6
 -0.0113709320     2     8     5     5
 0.0007534332     2     8     6     1
 -0.0071822335     2     8     6     2
 -0.0156933138     2     8     6     4
 -0.0009699689     2     8     6     6
 0.0032472466     2     8     7     3
 0.0001015976     2     8     7     7
 -0.0001536496     2     8     7     9
 -0.0020800649     2     8     8     1
 -0.2741423742     2     8     8     2
 -0.0148196863     2     8     8     4
 0.0063701969     2     8     8     6
 0.0174969527     2     8     9     3
 0.0012614185     2     8     9     7
 -0.0033500778     2     8     9     9
 -0.0014285235     2     9     1     3
 -0.0001406251     2     9     1     7
 0.0032698223     2     9     3     1
 0.0049036362     2     9     3     2
 0.0158726485     2     9     3     4
 0.0001749042     2     9     3     6
 -0.0016847027     2     9     3     8
 0.0195425136     2     9     4     3
 0.0021491645     2     9     4     7
 -0.0000617123     2     9     6     3
 -0.0015766441     2     9     6     7
 0.0010531113     2     9     7     1
 0.0223227385     2     9     7     2
 -0.0078547528     2     9     7     4
 -0.0034358809     2     9     7     6
 0.0001536496     2     9     7     8
 0.0152989316     2     9     8     3
 0.0013889135     2     9     8     7
 -0.0008730054     2     9     9     1
 -0.2971759614     2     9     9     2
 -0.0078778610     2     9     9     4
 0.0096226777     2     9     9     6
 0.0033500778     2     9     9     8
 -0.8722929072     3     1     1     3
 -0.1039287469     3     1     1     7
 0.0385468025     3     1     1     9
 -0.0313673235     3     1     2     3
 -0.0057585630     3     1     2     7
 0.0032698223     3     1     2     9
 -0.0106298288     3     1     4     3
 -0.0019821186     3     1     4     7
 0.0010278664     3     1     4     9
 0.0035257439     3     1     6     3
 0.0026219270     3     1     6     7
 -0.0008369713     3     1     6     9
 0.0016470093     3     1     7     2
 -0.0006733624     3     1     7     4
 0.0015063071     3     1     7     6
 0.0007606717     3     1     7     8
 0.0036407579     3     1     8     3
 0.0013862587     3     1     8     7
 0.0010034207     3     1     8     9
 -0.0014285235     3     1     9     2
 0.0027769283     3     1     9     4
 0.0003174280     3     1     9     6
 0.0007658554     3     1     9     8
 -0.0313673235     3     2     1     3
 -0.0081188476     3     2     1     7
 0.0050566850     3     2     1     9
 -0.5292330783     3     2     2     3
 -0.0439639465     3     2     2     7
 0.0049036362     3     2     2     9
 -0.0016615854     3     2     4     3
 0.0013476220     3     2     4     7
 -0.0036470219     3     2     4     9
 0.0451201521     3     2     6     3
 -0.0180751405     3     2     6     7
 -0.0000634547     3     2     6     9
 -0.0016470093     3     2     7     1
 0.0056021421     3     2     7     4
 -0.0247058056     3     2     7     6
 -0.0070859794     3     2     7     8
 0.0229436203     3     2     8     3
 -0.0032472466     3     2     8     7
 -0.0174969527     3     2     8     9
 0.0014285235     3     2     9     1
 -0.0195425136     3     2     9     4
 0.0000617123     3     2     9     6
 -0.0152989316     3     2     9     8
 0.8722929072     3     3     1     1
 0.0313673235     3     3     1     2
 0.0106298288     3     3     1     4
 -0.0035257439     3     3     1     6
 -0.0036407579     3     3     1     8
 0.0313673235     3     3     2     1
 0.5292330783     3     3     2     2
 0.0016615854     3     3     2     4
 -0.0451201521     3     3     2     6
 -0.0229436203     3     3     2     8
 0.0106298288     3     3     4     1
 0.0016615854     3     3     4     2
 0.5628491340     3     3     4     4
 0.0239102410     3     3     4     6
 -0.0484666566     3     3     4     8
 0.5836028598     3     3     5     5
 -0.0035257439     3     3     6     1
 -0.0451201521     3     3     6     2
 0.0239102410     3     3     6     4
 0.2580002512     3     3     6     6
 0.0082084407     3     3     6     8
 0.2195586892     3     3     7     7
 -0.0185866808     3     3     7     9
 -0.0036407579     3     3     8     1
 -0.0229436203     3     3     8     2
 -0.0484666566     3     3     8     4
 0.0082084407     3     3     8     6
 0.2684285375     3     3     8     8
 -0.0185866808     3     3     9     7
 0.2879474371     3     3     9     9
 -0.0106298288     3     4     1     3
 -0.0014647869     3     4     1     7
 -0.0017251164     3     4     1     9
 -0.0016615854     3     4     2     3
 -0.0045314803     3     4     2     7
 0.0158726485     3     4     2     9
 -0.5628491340     3     4     4     3
 -0.0530286157     3     4     4     7
 0.0185636878     3     4     4     9
 -0.0239102410     3     4     6     3
 0.0019725278     3     4     6     7
 -0.0011583669     3     4     6     9
 0.0006733624     3     4     7     1
 -0.0056021421     3     4     7     2
 0.0061412775     3     4     7     6
 -0.0018500849     3     4     7     8
 0.0484666566     3     4     8     3
 0.0076068253     3     4     8     7
 -0.0042286151     3     4     8     9
 -0.0027769283     3     4     9     1
 0.0195425136     3     4     9     2
 -0.0023240019     3     4     9     6
 0.0025348855     3     4     9     8
 -0.5836028598     3     5     5     3
 -0.0552175405     3     5     5     7
 0.0132636378     3     5     5     9
 0.0035257439     3     6     1     3
 0.0010898434     3     6     1     7
 -0.0011644653     3     6     1     9
 0.0451201521     3     6     2     3
 0.0066223016     3     6     2     7
 0.0001749042     3     6     2     9
 -0.0239102410     3     6     4     3
 -0.0043031336     3     6     4     7
 0.0009277916     3     6     4     9
 -0.2580002512     3     6     6     3
 -0.0144293939     3     6     6     7
 -0.0073346072     3     6     6     9
 -0.0015063071     3     6     7     1
 0.0247058056     3     6     7     2
 -0.0061412775     3     6     7     4
 0.0060273323     3     6     7     8
 -0.0082084407     3     6     8     3
 -0.0038139867     3     6     8     7
 0.0023809950     3     6     8     9
 -0.0003174280     3     6     9     1
 -0.0000617123     3     6     9     2
 0.0023240019     3     6     9     4
 -0.0047794535     3     6     9     8
 0.1039287469     3     7     1     1
 0.0081188476     3     7     1     2
 0.0014647869     3     7     1     4
 -0.0010898434     3     7     1     6
 -0.0006487607     3     7     1     8
 0.0057585630     3     7     2     1
 0.0439639465     3     7     2     2
 0.0045314803     3     7     2     4
 -0.0066223016     3     7     2     6
 -0.0036246014     3     7     2     8
 0.0019821186     3     7     4     1
 -0.0013476220     3     7     4     2
 0.0530286157     3     7     4     4
 0.0043031336     3     7     4     6
 -0.0093496234     3     7     4     8
 0.0552175405     3     7     5     5
 -0.0026219270     3     7     6     1
 0.0180751405     3     7     6     2
 -0.0019725278     3     7     6     4
 0.0144293939     3     7     6     6
 0.0098121677     3     7     6     8
 -0.2195586892     3     7     7     3
 -0.0066299461     3     7     7     9
 -0.0013862587     3     7     8     1
 0.0032472466     3     7     8     2
 -0.0076068253     3     7     8     4
 0.0038139867     3     7     8     6
 0.0134450225     3     7     8     8
 0.0185866808     3     7     9     3
 0.0165640849     3     7     9     9
 0.0036407579     3     8     1     3
 0.0006487607     3     8     1     7
 0.0001754476     3     8     1     9
 0.0229436203     3     8     2     3
 0.0036246014     3     8     2     7
 -0.0016847027     3     8     2     9
 0.0484666566     3     8     4     3
 0.0093496234     3     8     4     7
 -0.0063646530     3     8     4     9
 -0.0082084407     3     8     6     3
 -0.0098121677     3     8     6     7
 0.0071191287     3     8     6     9
 -0.0007606717     3     8     7     1
 0.0070859794     3     8     7     2
 0.0018500849     3     8     7     4
 -0.0060273323     3     8     7     6
 -0.2684285375     3     8     8     3
 -0.0134450225     3     8     8     7
 0.0032230143     3     8     8     9
 -0.0007658554     3     8     9     1
 0.0152989316     3     8     9     2
 -0.0025348855     3     8     9     4
 0.0047794535     3     8     9     6
 -0.0385468025     3     9     1     1
 -0.0050566850     3     9     1     2
 0.0017251164     3     9     1     4
 0.0011644653     3     9     1     6
 -0.0001754476     3     9     1     8
 -0.0032698223     3     9     2     1
 -0.0049036362     3     9     2     2
 -0.0158726485     3     9     2     4
 -0.0001749042     3     9     2     6
 0.0016847027     3     9     2     8
 -0.0010278664     3     9     4     1
 0.0036470219     3     9     4     2
 -0.0185636878     3     9     4     4
 -0.0009277916     3     9     4     6
 0.0063646530     3     9     4     8
 -0.0132636378     3     9     5     5
 0.0008369713     3     9     6     1
 0.0000634547     3     9     6     2
 0.0011583669     3     9     6     4
 0.0073346072     3     9     6     6
 -0.0071191287     3     9     6     8
 0.0185866808     3     9     7     3
 0.0066299461     3     9     7     7
 -0.0010034207     3     9     8     1
 0.0174969527     3     9     8     2
 0.0042286151     3     9     8     4
 -0.0023809950     3     9     8     6
 -0.0032230143     3     9     8     8
 -0.2879474371     3     9     9     3
 -0.0165640849     3     9     9     7
 -0.0665696313     4     1     1     2
 -0.9487145619     4     1     1     4
 -0.0500147428     4     1     1     6
 0.1102992873     4     1     1     8
 0.0071105031     4     1     2     2
 -0.0360244253     4     1     2     4
 -0.0047208645     4     1     2     6
 0.0051773846     4     1     2     8
 0.0106298288     4     1     3     3
 0.0019821186     4     1     3     7
 -0.0010278664     4     1     3     9
 0.0135480513     4     1     5     5
 -0.0001159161     4     1     6     2
 0.0066989079     4     1     6     4
 0.0025736588     4     1     6     6
 -0.0024834690     4     1     6     8
 0.0014647869     4     1     7     3
 0.0014451034     4     1     7     7
 -0.0014917437     4     1     7     9
 -0.0015687995     4     1     8     2
 0.0024557381     4     1     8     4
 -0.0007328769     4     1     8     6
 -0.0017902946     4     1     8     8
 0.0017251164     4     1     9     3
 -0.0007793035     4     1     9     7
 -0.0001123095     4     1     9     9
 0.0665696313     4     2     1     1
 -0.0360244253     4     2     1     4
 -0.0051511716     4     2     1     6
 0.0074121671     4     2     1     8
 -0.0071105031     4     2     2     1
 -0.5504107336     4     2     2     4
 -0.0212083462     4     2     2     6
 0.0474303450     4     2     2     8
 0.0016615854     4     2     3     3
 -0.0013476220     4     2     3     7
 0.0036470219     4     2     3     9
 0.0037196032     4     2     5     5
 0.0001159161     4     2     6     1
 0.0449051215     4     2     6     4
 -0.0100900514     4     2     6     6
 0.0074217683     4     2     6     8
 0.0045314803     4     2     7     3
 -0.0091590256     4     2     7     7
 0.0102192630     4     2     7     9
 0.0015687995     4     2     8     1
 0.0159365161     4     2     8     4
 0.0156933138     4     2     8     6
 0.0148196863     4     2     8     8
 -0.0158726485     4     2     9     3
 0.0078547528     4     2     9     7
 0.0078778610     4     2     9     9
 0.0006733624     4     3     1     7
 -0.0027769283     4     3     1     9
 -0.0056021421     4     3     2     7
 0.0195425136     4     3     2     9
 -0.0106298288     4     3     3     1
 -0.0016615854     4     3     3     2
 -0.5628491340     4     3     3     4
 -0.0239102410     4     3     3     6
 0.0484666566     4     3     3     8
 0.0061412775     4     3     6     7
 -0.0023240019     4     3     6     9
 -0.0014647869     4     3     7     1
 -0.0045314803     4     3     7     2
 -0.0530286157     4     3     7     4
 0.0019725278     4     3     7     6
 0.0076068253     4     3     7     8
 -0.0018500849     4     3     8     7
 0.0025348855     4     3     8     9
 -0.0017251164     4     3     9     1
 0.0158726485     4     3     9     2
 0.0185636878     4     3     9     4
 -0.0011583669     4     3     9     6
 -0.0042286151     4     3     9     8
 0.9487145619     4     4     1     1
 0.0360244253     4     4     1     2
 -0.0066989079     4     4     1     6
 -0.0024557381     4     4     1     8
 0.0360244253     4     4     2     1
 0.5504107336     4     4     2     2
 -0.0449051215     4     4     2     6
 -0.0159365161     4     4     2     8
 0.5628491340     4     4     3     3
 0.0530286157     4     4     3     7
 -0.0185636878     4     4     3     9
 0.6013641725     4     4     5     5
 -0.0066989079     4     4     6     1
 -0.0449051215     4     4     6     2
 0.2471081688     4     4     6     6
 0.0192603245     4     4     6     8
 0.0530286157     4     4     7     3
 0.2174544776     4     4     7     7
 -0.0164068689     4     4     7     9
 -0.0024557381     4     4     8     1
 -0.0159365161     4     4     8     2
 0.0192603245     4     4     8     6
 0.2767380315     4     4     8     8
 -0.0185636878     4     4     9     3
 -0.0164068689     4     4     9     7
 0.2915527855     4     4     9     9
 -0.0135480513     4     5     5     1
 -0.0037196032     4     5     5     2
 -0.6013641725     4     5     5     4
 -0.0278621609     4     5     5     6
 0.0542276253     4     5     5     8
 0.0500147428     4     6     1     1
 0.0051511716     4     6     1     2
 0.0066989079     4     6     1     4
 -0.0017131780     4     6     1     8
 0.0047208645     4     6     2     1
 0.0212083462     4     6     2     2
 0.0449051215     4     6     2     4
 -0.0081085792     4     6     2     8
 0.0239102410     4     6     3     3
 0.0043031336     4     6     3     7
 -0.0009277916     4     6     3     9
 0.0278621609     4     6     5     5
 -0.0025736588     4     6     6     1
 0.0100900514     4     6     6     2
 -0.2471081688     4     6     6     4
 0.0145477822     4     6     6     8
 -0.0019725278     4     6     7     3
 0.0024002239     4     6     7     7
 -0.0100692205     4     6     7     9
 0.0007328769     4     6     8     1
 -0.0156933138     4     6     8     2
 -0.0192603245     4     6     8     4
 0.0083800679     4     6     8     8
 0.0011583669     4     6     9     3
 0.0022635947     4     6     9     7
 0.0068072237     4     6     9     9
 -0.0006733624     4     7     1     3
 -0.0006976958     4     7     1     9
 0.0056021421     4     7     2     3
 0.0021491645     4     7     2     9
 -0.0019821186     4     7     3     1
 0.0013476220     4     7     3     2
 -0.0530286157     4     7     3     4
 -0.0043031336     4     7     3     6
 0.0093496234     4     7     3     8
 -0.0061412775     4     7     6     3
 -0.0123613652     4     7     6     9
 -0.0014451034     4     7     7     1
 0.0091590256     4     7     7     2
 -0.2174544776     4     7     7     4
 -0.0024002239     4     7     7     6
 0.0071695698     4     7     7     8
 0.0018500849     4     7     8     3
 -0.0050382147     4     7     8     9
 0.0007793035     4     7     9     1
 -0.0078547528     4     7     9     2
 0.0164068689     4     7     9     4
 -0.0022635947     4     7     9     6
 -0.0058488010     4     7     9     8
 -0.1102992873     4     8     1     1
 -0.0074121671     4     8     1     2
 0.0024557381     4     8     1     4
 0.0017131780     4     8     1     6
 -0.0051773846     4     8     2     1
 -0.0474303450     4     8     2     2