&FCI NORB= 13,NELEC= 10,MS2=0,
 ORBSYM=1,1,1,1,1,1,1,1,1,1,1,1,1
 ISYM=1,
&END
 0.9834347273     1     1     2     2
 0.0686226982     1     1     2     4
 -0.1485820940     1     1     2     6
 -0.1185574971     1     1     2     9
 0.0399785471     1     1     2    10
 -0.0694100732     1     1     2    12
 0.8661344017     1     1     3     3
 0.1791162974     1     1     3     7
 0.1072427452     1     1     3     8
 0.2529283348     1     1     3    13
 0.0686226982     1     1     4     2
 0.9520709279     1     1     4     4
 0.0807929068     1     1     4     6
 0.0638518672     1     1     4     9
 -0.2687496254     1     1     4    10
 0.0403849246     1     1     4    12
 1.0019584663     1     1     5     5
 -0.3467497064     1     1     5    11
 -0.1485820940     1     1     6     2
 0.0807929068     1     1     6     4
 0.3479958277     1     1     6     6
 0.1073448546     1     1     6     9
 -0.0899270730     1     1     6    10
 0.0571952965     1     1     6    12
 0.1791162974     1     1     7     3
 0.3255297293     1     1     7     7
 0.0990340531     1     1     7     8
 0.1676507290     1     1     7    13
 0.1072427452     1     1     8     3
 0.0990340531     1     1     8     7
 0.4551121224     1     1     8     8
 0.0846192679     1     1     8    13
 -0.1185574971     1     1     9     2
 0.0638518672     1     1     9     4
 0.1073448546     1     1     9     6
 0.4550652968     1     1     9     9
 -0.0558436998     1     1     9    10
 0.0197263310     1     1     9    12
 0.0399785471     1     1    10     2
 -0.2687496254     1     1    10     4
 -0.0899270730     1     1    10     6
 -0.0558436998     1     1    10     9
 0.5360288688     1     1    10    10
 -0.0456746912     1     1    10    12
 -0.3467497064     1     1    11     5
 0.6618779715     1     1    11    11
 -0.0694100732     1     1    12     2
 0.0403849246     1     1    12     4
 0.0571952965     1     1    12     6
 0.0197263310     1     1    12     9
 -0.0456746912     1     1    12    10
 0.4318793677     1     1    12    12
 0.2529283348     1     1    13     3
 0.1676507290     1     1    13     7
 0.0846192679     1     1    13     8
 0.5460646370     1     1    13    13
 -0.9834347273     1     2     2     1
 -0.0069372892     1     2     2     4
 -0.0016614251     1     2     2     6
 -0.0019882552     1     2     2     9
 0.0056897828     1     2     2    10
 -0.0015035666     1     2     2    12
 0.0306851674     1     2     3     3
 0.0132091031     1     2     3     7
 0.0117169776     1     2     3     8
 0.0240326434     1     2     3    13
 -0.0686226982     1     2     4     1
 0.0359451046     1     2     4     4
 0.0073686391     1     2     4     6
 0.0079855788     1     2     4     9
 -0.0226351844     1     2     4    10
 0.0059808986     1     2     4    12
 0.0410693996     1     2     5     5
 -0.0292835203     1     2     5    11
 0.1485820940     1     2     6     1
 0.0072966252     1     2     6     4
 0.0017470732     1     2     6     6
 0.0021327220     1     2     6     9
 -0.0051863800     1     2     6    10
 0.0014475930     1     2     6    12
 0.0098663855     1     2     7     3
 0.0048743749     1     2     7     7
 0.0043073258     1     2     7     8
 0.0091467486     1     2     7    13
 0.0079145309     1     2     8     3
 0.0038304991     1     2     8     7
 0.0034047964     1     2     8     8
 0.0065682722     1     2     8    13
 0.1185574971     1     2     9     1
 0.0070523909     1     2     9     4
 0.0018657650     1     2     9     6
 0.0016987197     1     2     9     9
 -0.0052678253     1     2     9    10
 0.0014041525     1     2     9    12
 -0.0399785471     1     2    10     1
 -0.0171364794     1     2    10     4
 -0.0036891200     1     2    10     6
 -0.0043301683     1     2    10     9
 0.0133666383     1     2    10    10
 -0.0026698922     1     2    10    12
 -0.0217836304     1     2    11     5
 0.0189905889     1     2    11    11
 0.0694100732     1     2    12     1
 0.0043469684     1     2    12     4
 0.0009912348     1     2    12     6
 0.0011026707     1     2    12     9
 -0.0025174353     1     2    12    10
 0.0006531555     1     2    12    12
 0.0157747919     1     2    13     3
 0.0080793818     1     2    13     7
 0.0065411843     1     2    13     8
 0.0149676179     1     2    13    13
 0.0026015346     1     3     2     7
 0.0032297498     1     3     2     8
 0.0070420887     1     3     2    13
 -0.8661344017     1     3     3     1
 -0.0306851674     1     3     3     2
 -0.0104530485     1     3     3     4
 0.0045020847     1     3     3     6
 0.0002390479     1     3     3     9
 0.0025176503     1     3     3    10
 0.0049300739     1     3     3    12
 -0.0012788747     1     3     4     7
 -0.0049255323     1     3     4     8
 -0.0002775121     1     3     4    13
 0.0021014282     1     3     6     7
 -0.0004223568     1     3     6     8
 0.0019094441     1     3     6    13
 -0.1791162974     1     3     7     1
 -0.0098663855     1     3     7     2
 -0.0034701852     1     3     7     4
 0.0045406897     1     3     7     6
 0.0025663874     1     3     7     9
 -0.0001674170     1     3     7    10
 0.0016704419     1     3     7    12
 -0.1072427452     1     3     8     1
 -0.0079145309     1     3     8     2
 -0.0024942461     1     3     8     4
 0.0027563010     1     3     8     6
 0.0046407411     1     3     8     9
 -0.0038527752     1     3     8    10
 0.0034852806     1     3     8    12
 0.0019600911     1     3     9     7
 0.0028828813     1     3     9     8
 0.0049295252     1     3     9    13
 0.0001938918     1     3    10     7
 -0.0005317276     1     3    10     8
 0.0012434072     1     3    10    13
 -0.0008299378     1     3    12     7
 0.0006346273     1     3    12     8
 -0.0013092602     1     3    12    13
 -0.2529283348     1     3    13     1
 -0.0157747919     1     3    13     2
 -0.0054890143     1     3    13     4
 0.0061571426     1     3    13     6
 0.0058055649     1     3    13     9
 0.0013780564     1     3    13    10
 0.0031031303     1     3    13    12
 -0.0686226982     1     4     2     1
 0.0069372892     1     4     2     2
 -0.0004510519     1     4     2     6
 0.0004404234     1     4     2     9
 -0.0042051711     1     4     2    10
 0.0013210247     1     4     2    12
 0.0104530485     1     4     3     3
 0.0023839735     1     4     3     7
 -0.0023307605     1     4     3     8
 0.0056046110     1     4     3    13
 -0.9520709279     1     4     4     1
 -0.0359451046     1     4     4     2
 0.0092429189     1     4     4     6
 0.0096711103     1     4     4     9
 -0.0066943286     1     4     4    10
 0.0003934223     1     4     4    12
 0.0137470718     1     4     5     5
 -0.0093163261     1     4     5    11
 -0.0807929068     1     4     6     1
 -0.0072966252     1     4     6     2
 0.0041226092     1     4     6     6
 0.0029027327     1     4     6     9
 -0.0037822326     1     4     6    10
 0.0011364814     1     4     6    12
 0.0034701852     1     4     7     3
 0.0027437692     1     4     7     7
 0.0011613014     1     4     7     8
 0.0035287892     1     4     7    13
 0.0024942461     1     4     8     3
 0.0028815139     1     4     8     7
 0.0028311165     1     4     8     8
 0.0071506586     1     4     8    13
 -0.0638518672     1     4     9     1
 -0.0070523909     1     4     9     2
 0.0029902019     1     4     9     6
 0.0060185238     1     4     9     9
 -0.0019951245     1     4     9    10
 0.0007406752     1     4     9    12
 0.2687496254     1     4    10     1
 0.0171364794     1     4    10     2
 -0.0082874632     1     4    10     6
 -0.0066736723     1     4    10     9
 0.0028789226     1     4    10    10
 -0.0047468900     1     4    10    12
 -0.0076684721     1     4    11     5
 0.0064854716     1     4    11    11
 -0.0403849246     1     4    12     1
 -0.0043469684     1     4    12     2
 0.0026713065     1     4    12     6
 0.0023059206     1     4    12     9
 -0.0057774147     1     4    12    10
 0.0034564315     1     4    12    12
 0.0054890143     1     4    13     3
 0.0026190606     1     4    13     7
 0.0032482277     1     4    13     8
 0.0039361410     1     4    13    13
 -0.0059234037     1     5     2    11
 -0.0011567640     1     5     4    11
 -1.0019584663     1     5     5     1
 -0.0410693996     1     5     5     2
 -0.0137470718     1     5     5     4
 0.0088877588     1     5     5     6
 0.0118182907     1     5     5     9
 0.0029070902     1     5     5    10
 0.0065215139     1     5     5    12
 -0.0023264895     1     5     6    11
 0.0023058178     1     5     9    11
 0.0016283449     1     5    10    11
 0.3467497064     1     5    11     1
 0.0217836304     1     5    11     2
 0.0076684721     1     5    11     4
 -0.0089314590     1     5    11     6
 -0.0065276288     1     5    11     9
 -0.0000608038     1     5    11    10
 -0.0039547111     1     5    11    12
 0.0009304358     1     5    12    11
 0.1485820940     1     6     2     1
 0.0016614251     1     6     2     2
 0.0004510519     1     6     2     4
 0.0002956425     1     6     2     9
 -0.0015175256     1     6     2    10
 0.0004740151     1     6     2    12
 -0.0045020847     1     6     3     3
 -0.0024488595     1     6     3     7
 -0.0032213001     1     6     3     8
 -0.0043201823     1     6     3    13
 -0.0807929068     1     6     4     1
 -0.0073686391     1     6     4     2
 -0.0092429189     1     6     4     4
 -0.0001181704     1     6     4     9
 0.0046224805     1     6     4    10
 -0.0015486204     1     6     4    12
 -0.0088877588     1     6     5     5
 0.0065977271     1     6     5    11
 -0.3479958277     1     6     6     1
 -0.0017470732     1     6     6     2
 -0.0041226092     1     6     6     4
 -0.0003827513     1     6     6     9
 0.0018968794     1     6     6    10
 -0.0004272732     1     6     6    12
 -0.0045406897     1     6     7     3
 -0.0017796099     1     6     7     7
 -0.0017603256     1     6     7     8
 -0.0035980093     1     6     7    13
 -0.0027563010     1     6     8     3
 -0.0008518411     1     6     8     7
 -0.0006192697     1     6     8     8
 -0.0010736452     1     6     8    13
 -0.1073448546     1     6     9     1
 -0.0018657650     1     6     9     2
 -0.0029902019     1     6     9     4
 0.0006891378     1     6     9     9
 0.0016025855     1     6     9    10
 -0.0003454937     1     6     9    12
 0.0899270730     1     6    10     1
 0.0036891200     1     6    10     2
 0.0082874632     1     6    10     4
 0.0005817400     1     6    10     9
 -0.0051577965     1     6    10    10
 0.0002389652     1     6    10    12
 0.0089314590     1     6    11     5
 -0.0068749401     1     6    11    11
 -0.0571952965     1     6    12     1
 -0.0009912348     1     6    12     2
 -0.0026713065     1     6    12     4
 -0.0001442682     1     6    12     9
 0.0003973999     1     6    12    10
 0.0003944031     1     6    12    12
 -0.0061571426     1     6    13     3
 -0.0028261433     1     6    13     7
 -0.0020939449     1     6    13     8
 -0.0053914212     1     6    13    13
 -0.0026015346     1     7     2     3
 0.0004738841     1     7     2     8
 0.0010178773     1     7     2    13
 -0.1791162974     1     7     3     1
 -0.0132091031     1     7     3     2
 -0.0023839735     1     7     3     4
 0.0024488595     1     7     3     6
 0.0005930054     1     7     3     9
 -0.0003123687     1     7     3    10
 0.0025079272     1     7     3    12
 0.0012788747     1     7     4     3
 -0.0017319375     1     7     4     8
 0.0008835178     1     7     4    13
 -0.0021014282     1     7     6     3
 -0.0009066771     1     7     6     8
 -0.0007664424     1     7     6    13
 -0.3255297293     1     7     7     1
 -0.0048743749     1     7     7     2
 -0.0027437692     1     7     7     4
 0.0017796099     1     7     7     6
 0.0009302016     1     7     7     9
 0.0006127881     1     7     7    10
 0.0005969666     1     7     7    12
 -0.0990340531     1     7     8     1
 -0.0038304991     1     7     8     2
 -0.0028815139     1     7     8     4
 0.0008518411     1     7     8     6
 0.0016172256     1     7     8     9
 -0.0005493222     1     7     8    10
 0.0012668045     1     7     8    12
 -0.0019600911     1     7     9     3
 0.0005435595     1     7     9     8
 0.0005959784     1     7     9    13
 -0.0001938918     1     7    10     3
 -0.0002995519     1     7    10     8
 0.0003770626     1     7    10    13
 0.0008299378     1     7    12     3
 0.0005626894     1     7    12     8
 0.0000706340     1     7    12    13
 -0.1676507290     1     7    13     1
 -0.0080793818     1     7    13     2
 -0.0026190606     1     7    13     4
 0.0028261433     1     7    13     6
 0.0026639643     1     7    13     9
 0.0005399668     1     7    13    10
 0.0014354712     1     7    13    12
 -0.0032297498     1     8     2     3
 -0.0004738841     1     8     2     7
 -0.0000061877     1     8     2    13
 -0.1072427452     1     8     3     1
 -0.0117169776     1     8     3     2
 0.0023307605     1     8     3     4
 0.0032213001     1     8     3     6
 0.0017902652     1     8     3     9
 -0.0033055570     1     8     3    10
 0.0028782640     1     8     3    12
 0.0049255323     1     8     4     3
 0.0017319375     1     8     4     7
 0.0038939509     1     8     4    13
 0.0004223568     1     8     6     3
 0.0009066771     1     8     6     7
 0.0010243264     1     8     6    13
 -0.0990340531     1     8     7     1
 -0.0043073258     1     8     7     2
 -0.0011613014     1     8     7     4
 0.0017603256     1     8     7     6
 0.0010757267     1     8     7     9
 -0.0002552137     1     8     7    10
 0.0007078255     1     8     7    12
 -0.4551121224     1     8     8     1
 -0.0034047964     1     8     8     2
 -0.0028311165     1     8     8     4
 0.0006192697     1     8     8     6
 0.0012563995     1     8     8     9
 -0.0002014620     1     8     8    10
 0.0009575472     1     8     8    12
 -0.0028828813     1     8     9     3
 -0.0005435595     1     8     9     7
 -0.0004799765     1     8     9    13
 0.0005317276     1     8    10     3
 0.0002995519     1     8    10     7
 0.0008258599     1     8    10    13
 -0.0006346273     1     8    12     3
 -0.0005626894     1     8    12     7
 -0.0009287697     1     8    12    13
 -0.0846192679     1     8    13     1
 -0.0065411843     1     8    13     2
 -0.0032482277     1     8    13     4
 0.0020939449     1     8    13     6
 0.0019224025     1     8    13     9
 0.0011557887     1     8    13    10
 0.0010394836     1     8    13    12
 0.1185574971     1     9     2     1
 0.0019882552     1     9     2     2
 -0.0004404234     1     9     2     4
 -0.0002956425     1     9     2     6
 -0.0009716981     1     9     2    10
 0.0003024196     1     9     2    12
 -0.0002390479     1     9     3     3
 -0.0005930054     1     9     3     7
 -0.0017902652     1     9     3     8
 -0.0009169495     1     9     3    13
 -0.0638518672     1     9     4     1
 -0.0079855788     1     9     4     2
 -0.0096711103     1     9     4     4
 0.0001181704     1     9     4     6
 0.0047596922     1     9     4    10
 -0.0015441488     1     9     4    12
 -0.0118182907     1     9     5     5
 0.0087771264     1     9     5    11
 -0.1073448546     1     9     6     1
 -0.0021327220     1     9     6     2
 -0.0029027327     1     9     6     4
 0.0003827513     1     9     6     6
 0.0010228325     1     9     6    10
 -0.0002009840     1     9     6    12
 -0.0025663874     1     9     7     3
 -0.0009302016     1     9     7     7
 -0.0010757267     1     9     7     8
 -0.0020662673     1     9     7    13
 -0.0046407411     1     9     8     3
 -0.0016172256     1     9     8     7
 -0.0012563995     1     9     8     8
 -0.0024007396     1     9     8    13
 -0.4550652968     1     9     9     1
 -0.0016987197     1     9     9     2
 -0.0060185238     1     9     9     4
 -0.0006891378     1     9     9     6
 0.0035676901     1     9     9    10
 -0.0008160677     1     9     9    12
 0.0558436998     1     9    10     1
 0.0043301683     1     9    10     2
 0.0066736723     1     9    10     4
 -0.0005817400     1     9    10     6
 -0.0040163821     1     9    10    10
 -0.0001050768     1     9    10    12
 0.0065276288     1     9    11     5
 -0.0051135811     1     9    11    11
 -0.0197263310     1     9    12     1
 -0.0011026707     1     9    12     2
 -0.0023059206     1     9    12     4
 0.0001442682     1     9    12     6
 0.0000744037     1     9    12    10
 0.0004908444     1     9    12    12
 -0.0058055649     1     9    13     3
 -0.0026639643     1     9    13     7
 -0.0019224025     1     9    13     8
 -0.0050958838     1     9    13    13
 -0.0399785471     1    10     2     1
 -0.0056897828     1    10     2     2
 0.0042051711     1    10     2     4
 0.0015175256     1    10     2     6
 0.0009716981     1    10     2     9
 -0.0001218586     1    10     2    12
 -0.0025176503     1    10     3     3
 0.0003123687     1    10     3     7
 0.0033055570     1    10     3     8
 -0.0002488252     1    10     3    13
 0.2687496254     1    10     4     1
 0.0226351844     1    10     4     2
 0.0066943286     1    10     4     4
 -0.0046224805     1    10     4     6
 -0.0047596922     1    10     4     9
 0.0009796501     1    10     4    12
 -0.0029070902     1    10     5     5
 0.0018094251     1    10     5    11
 0.0899270730     1    10     6     1
 0.0051863800     1    10     6     2
 0.0037822326     1    10     6     4
 -0.0018968794     1    10     6     6
 -0.0010228325     1    10     6     9
 -0.0001574313     1    10     6    12
 0.0001674170     1    10     7     3
 -0.0006127881     1    10     7     7
 0.0002552137     1    10     7     8
 -0.0001615521     1    10     7    13
 0.0038527752     1    10     8     3
 0.0005493222     1    10     8     7
 0.0002014620     1    10     8     8
 -0.0003252995     1    10     8    13
 0.0558436998     1    10     9     1
 0.0052678253     1    10     9     2
 0.0019951245     1    10     9     4
 -0.0016025855     1    10     9     6
 -0.0035676901     1    10     9     9
 -0.0001800648     1    10     9    12
 -0.5360288688     1    10    10     1
 -0.0133666383     1    10    10     2
 -0.0028789226     1    10    10     4
 0.0051577965     1    10    10     6
 0.0040163821     1    10    10     9
 0.0028480326     1    10    10    12
 0.0000608038     1    10    11     5
 -0.0001163403     1    10    11    11
 0.0456746912     1    10    12     1
 0.0025174353     1    10    12     2
 0.0057774147     1    10    12     4
 -0.0003973999     1    10    12     6
 -0.0000744037     1    10    12     9
 -0.0013266810     1    10    12    12
 -0.0013780564     1    10    13     3
 -0.0005399668     1    10    13     7
 -0.0011557887     1    10    13     8
 -0.0003988426     1    10    13    13
 0.0059234037     1    11     2     5
 0.0011567640     1    11     4     5
 0.3467497064     1    11     5     1
 0.0292835203     1    11     5     2
 0.0093163261     1    11     5     4
 -0.0065977271     1    11     5     6
 -0.0087771264     1    11     5     9
 -0.0018094251     1    11     5    10
 -0.0048596368     1    11     5    12
 0.0023264895     1    11     6     5
 -0.0023058178     1    11     9     5
 -0.0016283449     1    11    10     5
 -0.6618779715     1    11    11     1
 -0.0189905889     1    11    11     2
 -0.0064854716     1    11    11     4
 0.0068749401     1    11    11     6
 0.0051135811     1    11    11     9
 0.0001163403     1    11    11    10
 0.0030739563     1    11    11    12
 -0.0009304358     1    11    12     5
 0.0694100732     1    12     2     1
 0.0015035666     1    12     2     2
 -0.0013210247     1    12     2     4
 -0.0004740151     1    12     2     6
 -0.0003024196     1    12     2     9
 0.0001218586     1    12     2    10
 -0.0049300739     1    12     3     3
 -0.0025079272     1    12     3     7
 -0.0028782640     1    12     3     8
 -0.0044390745     1    12     3    13
 -0.0403849246     1    12     4     1
 -0.0059808986     1    12     4     2
 -0.0003934223     1    12     4     4
 0.0015486204     1    12     4     6
 0.0015441488     1    12     4     9
 -0.0009796501     1    12     4    10
 -0.0065215139     1    12     5     5
 0.0048596368     1    12     5    11
 -0.0571952965     1    12     6     1
 -0.0014475930     1    12     6     2
 -0.0011364814     1    12     6     4
 0.0004272732     1    12     6     6
 0.0002009840     1    12     6     9
 0.0001574313     1    12     6    10
 -0.0016704419     1    12     7     3
 -0.0005969666     1    12     7     7
 -0.0007078255     1    12     7     8
 -0.0013720144     1    12     7    13
 -0.0034852806     1    12     8     3
 -0.0012668045     1    12     8     7
 -0.0009575472     1    12     8     8
 -0.0019688167     1    12     8    13
 -0.0197263310     1    12     9     1
 -0.0014041525     1    12     9     2
 -0.0007406752     1    12     9     4
 0.0003454937     1    12     9     6
 0.0008160677     1    12     9     9
 0.0001800648     1    12     9    10
 0.0456746912     1    12    10     1
 0.0026698922     1    12    10     2
 0.0047468900     1    12    10     4
 -0.0002389652     1    12    10     6
 0.0001050768     1    12    10     9
 -0.0028480326     1    12    10    10
 0.0039547111     1    12    11     5
 -0.0030739563     1    12    11    11
 -0.4318793677     1    12    12     1
 -0.0006531555     1    12    12     2
 -0.0034564315     1    12    12     4
 -0.0003944031     1    12    12     6
 -0.0004908444     1    12    12     9
 0.0013266810     1    12    12    10
 -0.0031031303     1    12    13     3
 -0.0014354712     1    12    13     7
 -0.0010394836     1    12    13     8
 -0.0027935946     1    12    13    13
 -0.0070420887     1    13     2     3
 -0.0010178773     1    13     2     7
 0.0000061877     1    13     2     8
 -0.2529283348     1    13     3     1
 -0.0240326434     1    13     3     2
 -0.0056046110     1    13     3     4
 0.0043201823     1    13     3     6
 0.0009169495     1    13     3     9
 0.0002488252     1    13     3    10
 0.0044390745     1    13     3    12
 0.0002775121     1    13     4     3
 -0.0008835178     1    13     4     7
 -0.0038939509     1    13     4     8
 -0.0019094441     1    13     6     3
 0.0007664424     1    13     6     7
 -0.0010243264     1    13     6     8
 -0.1676507290     1    13     7     1
 -0.0091467486     1    13     7     2
 -0.0035287892     1    13     7     4
 0.0035980093     1    13     7     6
 0.0020662673     1    13     7     9
 0.0001615521     1    13     7    10
 0.0013720144     1    13     7    12
 -0.0846192679     1    13     8     1
 -0.0065682722     1    13     8     2
 -0.0071506586     1    13     8     4
 0.0010736452     1    13     8     6
 0.0024007396     1    13     8     9
 0.0003252995     1    13     8    10
 0.0019688167     1    13     8    12
 -0.0049295252     1    13     9     3
 -0.0005959784     1    13     9     7
 0.0004799765     1    13     9     8
 -0.0012434072     1    13    10     3
 -0.0003770626     1    13    10     7
 -0.0008258599     1    13    10     8
 0.0013092602     1    13    12     3
 -0.0000706340     1    13    12     7
 0.0009287697     1    13    12     8
 -0.5460646370     1    13    13     1
 -0.0149676179     1    13    13     2
 -0.0039361410     1    13    13     4
 0.0053914212     1    13    13     6
 0.0050958838     1    13    13     9
 0.0003988426     1    13    13    10
 0.0027935946     1    13    13    12
 -0.9834347273     2     1     1     2
 -0.0686226982     2     1     1     4
 0.1485820940     2     1     1     6
 0.1185574971     2     1     1     9
 -0.0399785471     2     1     1    10
 0.0694100732     2     1     1    12
 0.0306851674     2     1     3     3
 0.0098663855     2     1     3     7
 0.0079145309     2     1     3     8
 0.0157747919     2     1     3    13
 -0.0069372892     2     1     4     2
 0.0359451046     2     1     4     4
 0.0072966252     2     1     4     6
 0.0070523909     2     1     4     9
 -0.0171364794     2     1     4    10
 0.0043469684     2     1     4    12
 0.0410693996     2     1     5     5
 -0.0217836304     2     1     5    11
 -0.0016614251     2     1     6     2
 0.0073686391     2     1     6     4
 0.0017470732     2     1     6     6
 0.0018657650     2     1     6     9
 -0.0036891200     2     1     6    10
 0.0009912348     2     1     6    12
 0.0132091031     2     1     7     3
 0.0048743749     2     1     7     7
 0.0038304991     2     1     7     8
 0.0080793818     2     1     7    13
 0.0117169776     2     1     8     3
 0.0043073258     2     1     8     7
 0.0034047964     2     1     8     8
 0.0065411843     2     1     8    13
 -0.0019882552     2     1     9     2
 0.0079855788     2     1     9     4
 0.0021327220     2     1     9     6
 0.0016987197     2     1     9     9
 -0.0043301683     2     1     9    10
 0.0011026707     2     1     9    12
 0.0056897828     2     1    10     2
 -0.0226351844     2     1    10     4
 -0.0051863800     2     1    10     6
 -0.0052678253     2     1    10     9
 0.0133666383     2     1    10    10
 -0.0025174353     2     1    10    12
 -0.0292835203     2     1    11     5
 0.0189905889     2     1    11    11
 -0.0015035666     2     1    12     2
 0.0059808986     2     1    12     4
 0.0014475930     2     1    12     6
 0.0014041525     2     1    12     9
 -0.0026698922     2     1    12    10
 0.0006531555     2     1    12    12
 0.0240326434     2     1    13     3
 0.0091467486     2     1    13     7
 0.0065682722     2     1    13     8
 0.0149676179     2     1    13    13
 0.9834347273     2     2     1     1
 0.0069372892     2     2     1     4
 0.0016614251     2     2     1     6
 0.0019882552     2     2     1     9
 -0.0056897828     2     2     1    10
 0.0015035666     2     2     1    12
 0.5271586687     2     2     3     3
 0.0719848926     2     2     3     7
 0.0231740186     2     2     3     8
 0.0888140429     2     2     3    13
 0.0069372892     2     2     4     1
 0.5515237211     2     2     4     4
 0.0347266759     2     2     4     6
 0.0216481895     2     2     4     9
 -0.1009285491     2     2     4    10
 0.0045944790     2     2     4    12
 0.5802885550     2     2     5     5
 -0.1282917888     2     2     5    11
 0.0016614251     2     2     6     1
 0.0347266759     2     2     6     4
 0.3006470754     2     2     6     6
 0.0574651760     2     2     6     9
 -0.0523100265     2     2     6    10
 0.0289847367     2     2     6    12
 0.0719848926     2     2     7     3
 0.2841172714     2     2     7     7
 0.0606272801     2     2     7     8
 0.0899839566     2     2     7    13
 0.0231740186     2     2     8     3
 0.0606272801     2     2     8     7
 0.4059331921     2     2     8     8
 0.0347673664     2     2     8    13
 0.0019882552     2     2     9     1
 0.0216481895     2     2     9     4
 0.0574651760     2     2     9     6
 0.4066228619     2     2     9     9
 -0.0144430967     2     2     9    10
 -0.0050322482     2     2     9    12
 -0.0056897828     2     2    10     1
 -0.1009285491     2     2    10     4
 -0.0523100265     2     2    10     6
 -0.0144430967     2     2    10     9
 0.4052759446     2     2    10    10
 -0.0289003266     2     2    10    12
 -0.1282917888     2     2    11     5
 0.4734193239     2     2    11    11
 0.0015035666     2     2    12     1
 0.0045944790     2     2    12     4
 0.0289847367     2     2    12     6
 -0.0050322482     2     2    12     9
 -0.0289003266     2     2    12    10
 0.4042897149     2     2    12    12
 0.0888140429     2     2    13     3
 0.0899839566     2     2    13     7
 0.0347673664     2     2    13     8
 0.4052814692     2     2    13    13
 -0.0026015346     2     3     1     7
 -0.0032297498     2     3     1     8
 -0.0070420887     2     3     1    13
 -0.0306851674     2     3     3     1
 -0.5271586687     2     3     3     2
 -0.0019524011     2     3     3     4
 0.0664058583     2     3     3     6
 0.0714319341     2     3     3     9
 -0.0164555051     2     3     3    10
 0.0055582013     2     3     3    12
 0.0106407232     2     3     4     7
 0.0330166942     2     3     4     8
 0.0040693145     2     3     4    13
 -0.0339494516     2     3     6     7
 0.0001051871     2     3     6     8
 -0.0243901781     2     3     6    13
 -0.0132091031     2     3     7     1
 -0.0719848926     2     3     7     2
 0.0002916937     2     3     7     4
 -0.0187923492     2     3     7     6
 -0.0001733081     2     3     7     9
 -0.0005546960     2     3     7    10
 0.0094595607     2     3     7    12
 -0.0117169776     2     3     8     1
 -0.0231740186     2     3     8     2
 0.0043625019     2     3     8     4
 0.0036590796     2     3     8     6
 -0.0276591523     2     3     8     9
 0.0263301528     2     3     8    10
 -0.0157622196     2     3     8    12
 -0.0160885081     2     3     9     7
 -0.0292979322     2     3     9     8
 -0.0413497522     2     3     9    13
 0.0032286814     2     3    10     7
 0.0233205729     2     3    10     8
 -0.0062389637     2     3    10    13
 0.0049328717     2     3    12     7
 -0.0220163743     2     3    12     8
 -0.0007864789     2     3    12    13
 -0.0240326434     2     3    13     1
 -0.0888140429     2     3    13     2
 -0.0030612814     2     3    13     4
 -0.0049654036     2     3    13     6
 -0.0211332271     2     3    13     9
 -0.0120158234     2     3    13    10
 0.0064771682     2     3    13    12
 0.0686226982     2     4     1     1
 -0.0069372892     2     4     1     2
 0.0004510519     2     4     1     6