&FCI NORB= 17,NELEC= 10,MS2=0,
 ORBSYM=1,1,1,1,1,1,1,1,1,1,1,1,1,1,1,1,1
 ISYM=1,
&END
 0.9847058884     1     1     2     2
 -0.0672812246     1     1     2     4
 0.1081254359     1     1     2     6
 0.0547489381     1     1     2     8
 0.1117939801     1     1     2    11
 0.0543887256     1     1     2    13
 0.1457785774     1     1     2    16
 0.8707587882     1     1     3     3
 0.1194565017     1     1     3     7
 -0.0466981641     1     1     3     9
 -0.2272834360     1     1     3    12
 0.0384580787     1     1     3    17
 -0.0672812246     1     1     4     2
 0.9509836157     1     1     4     4
 0.0606066534     1     1     4     6
 -0.1254211589     1     1     4     8
 0.1632629077     1     1     4    11
 0.0588443257     1     1     4    13
 -0.0845595825     1     1     4    16
 0.9967847759     1     1     5     5
 -0.2274089229     1     1     5    10
 0.0564329700     1     1     5    15
 0.1081254359     1     1     6     2
 0.0606066534     1     1     6     4
 0.2796390317     1     1     6     6
 0.0147178226     1     1     6     8
 0.1065901197     1     1     6    11
 0.0477620683     1     1     6    13
 0.0733646692     1     1     6    16
 0.1194565017     1     1     7     3
 0.2409991822     1     1     7     7
 -0.0304752067     1     1     7     9
 -0.1283170654     1     1     7    12
 0.0185788321     1     1     7    17
 0.0547489381     1     1     8     2
 -0.1254211589     1     1     8     4
 0.0147178226     1     1     8     6
 0.3088740581     1     1     8     8
 -0.0208199090     1     1     8    11
 -0.0204348947     1     1     8    13
 0.0601028909     1     1     8    16
 -0.0466981641     1     1     9     3
 -0.0304752067     1     1     9     7
 0.3141062018     1     1     9     9
 0.0678984804     1     1     9    12
 0.0128797029     1     1     9    17
 -0.2274089229     1     1    10     5
 0.3956309847     1     1    10    10
 -0.0396317502     1     1    10    15
 0.1117939801     1     1    11     2
 0.1632629077     1     1    11     4
 0.1065901197     1     1    11     6
 -0.0208199090     1     1    11     8
 0.4229625498     1     1    11    11
 0.0396004540     1     1    11    13
 0.0094899135     1     1    11    16
 -0.2272834360     1     1    12     3
 -0.1283170654     1     1    12     7
 0.0678984804     1     1    12     9
 0.4507743818     1     1    12    12
 -0.0284726796     1     1    12    17
 0.0543887256     1     1    13     2
 0.0588443257     1     1    13     4
 0.0477620683     1     1    13     6
 -0.0204348947     1     1    13     8
 0.0396004540     1     1    13    11
 0.3358661915     1     1    13    13
 0.0093426596     1     1    13    16
 0.3246988944     1     1    14    14
 0.0564329700     1     1    15     5
 -0.0396317502     1     1    15    10
 0.3317567153     1     1    15    15
 0.1457785774     1     1    16     2
 -0.0845595825     1     1    16     4
 0.0733646692     1     1    16     6
 0.0601028909     1     1    16     8
 0.0094899135     1     1    16    11
 0.0093426596     1     1    16    13
 0.4083692983     1     1    16    16
 0.0384580787     1     1    17     3
 0.0185788321     1     1    17     7
 0.0128797029     1     1    17     9
 -0.0284726796     1     1    17    12
 0.2961037446     1     1    17    17
 -0.9847058884     1     2     2     1
 0.0070450622     1     2     2     4
 0.0011032513     1     2     2     6
 -0.0020053651     1     2     2     8
 0.0034434323     1     2     2    11
 0.0014630101     1     2     2    13
 -0.0011105178     1     2     2    16
 0.0311651313     1     2     3     3
 0.0085500026     1     2     3     7
 -0.0052506031     1     2     3     9
 -0.0200280280     1     2     3    12
 0.0031631401     1     2     3    17
 0.0672812246     1     2     4     1
 0.0360862036     1     2     4     4
 0.0054728586     1     2     4     6
 -0.0078639140     1     2     4     8
 0.0144991343     1     2     4    11
 0.0061396223     1     2     4    13
 -0.0046584841     1     2     4    16
 0.0409154877     1     2     5     5
 -0.0170513418     1     2     5    10
 0.0053589111     1     2     5    15
 -0.1081254359     1     2     6     1
 0.0052325766     1     2     6     4
 0.0009831122     1     2     6     6
 -0.0011773531     1     2     6     8
 0.0027122613     1     2     6    11
 0.0011002425     1     2     6    13
 -0.0005206428     1     2     6    16
 0.0063494664     1     2     7     3
 0.0021323315     1     2     7     7
 -0.0012158936     1     2     7     9
 -0.0052055868     1     2     7    12
 0.0008845055     1     2     7    17
 -0.0547489381     1     2     8     1
 -0.0057157878     1     2     8     4
 -0.0007880064     1     2     8     6
 0.0020659665     1     2     8     8
 -0.0030213675     1     2     8    11
 -0.0009509778     1     2     8    13
 0.0014021213     1     2     8    16
 -0.0035398651     1     2     9     3
 -0.0010648583     1     2     9     7
 0.0008703311     1     2     9     9
 0.0024838229     1     2     9    12
 -0.0006861951     1     2     9    17
 -0.0130632327     1     2    10     5
 0.0072457198     1     2    10    10
 -0.0019291359     1     2    10    15
 -0.1117939801     1     2    11     1
 0.0120205375     1     2    11     4
 0.0022676433     1     2    11     6
 -0.0035053309     1     2    11     8
 0.0061633293     1     2    11    11
 0.0024041892     1     2    11    13
 -0.0019177326     1     2    11    16
 -0.0137700755     1     2    12     3
 -0.0048047825     1     2    12     7
 0.0026040503     1     2    12     9
 0.0110389378     1     2    12    12
 -0.0018523115     1     2    12    17
 -0.0543887256     1     2    13     1
 0.0046773262     1     2    13     4
 0.0008231747     1     2    13     6
 -0.0010362891     1     2    13     8
 0.0021698341     1     2    13    11
 0.0007031621     1     2    13    13
 -0.0005797427     1     2    13    16
 -0.0002239664     1     2    14    14
 0.0035527150     1     2    15     5
 -0.0016133562     1     2    15    10
 0.0003856286     1     2    15    15
 -0.1457785774     1     2    16     1
 -0.0021904280     1     2    16     4
 -0.0001002535     1     2    16     6
 0.0010005415     1     2    16     8
 -0.0009718100     1     2    16    11
 -0.0002446348     1     2    16    13
 0.0010807085     1     2    16    16
 0.0020547065     1     2    17     3
 0.0007934873     1     2    17     7
 -0.0006918875     1     2    17     9
 -0.0017946411     1     2    17    12
 0.0001439347     1     2    17    17
 0.0015822827     1     3     2     7
 -0.0013972227     1     3     2     9
 -0.0049632591     1     3     2    12
 0.0009085344     1     3     2    17
 -0.8707587882     1     3     3     1
 -0.0311651313     1     3     3     2
 0.0105830660     1     3     3     4
 -0.0035742528     1     3     3     6
 -0.0036309350     1     3     3     8
 -0.0002597234     1     3     3    11
 -0.0032930881     1     3     3    13
 -0.0090796448     1     3     3    16
 0.0007049559     1     3     4     7
 -0.0028342440     1     3     4     9
 -0.0021514057     1     3     4    12
 -0.0005373957     1     3     4    17
 -0.0026278919     1     3     5    14
 -0.0014985724     1     3     6     7
 -0.0003202890     1     3     6     9
 0.0012901688     1     3     6    12
 -0.0004144694     1     3     6    17
 -0.1194565017     1     3     7     1
 -0.0063494664     1     3     7     2
 0.0021706072     1     3     7     4
 -0.0026915513     1     3     7     6
 -0.0014469800     1     3     7     8
 -0.0016583007     1     3     7    11
 -0.0004129879     1     3     7    13
 -0.0023721780     1     3     7    16
 -0.0007591590     1     3     8     7
 -0.0007749555     1     3     8     9
 0.0021339494     1     3     8    12
 -0.0007801740     1     3     8    17
 0.0466981641     1     3     9     1
 0.0035398651     1     3     9     2
 -0.0010885510     1     3     9     4
 0.0008773033     1     3     9     6
 -0.0009823521     1     3     9     8
 0.0025835895     1     3     9    11
 0.0013877098     1     3     9    13
 0.0007524335     1     3     9    16
 -0.0007860680     1     3    10    14
 -0.0010733456     1     3    11     7
 0.0009748585     1     3    11     9
 0.0027760841     1     3    11    12
 -0.0017191163     1     3    11    17
 0.2272834360     1     3    12     1
 0.0137700755     1     3    12     2
 -0.0046338562     1     3    12     4
 0.0042904872     1     3    12     6
 0.0035227650     1     3    12     8
 0.0046734355     1     3    12    11
 0.0020436525     1     3    12    13
 0.0066592371     1     3    12    16
 0.0007371855     1     3    13     7
 0.0002428831     1     3    13     9
 -0.0008228030     1     3    13    12
 0.0022818908     1     3    13    17
 0.0001648132     1     3    14     5
 -0.0020993864     1     3    14    10
 0.0021940540     1     3    14    15
 0.0018198280     1     3    15    14
 -0.0000309731     1     3    16     7
 -0.0003311181     1     3    16     9
 0.0012710147     1     3    16    12
 -0.0001857597     1     3    16    17
 -0.0384580787     1     3    17     1
 -0.0020547065     1     3    17     2
 0.0010523179     1     3    17     4
 -0.0006820896     1     3    17     6
 -0.0012877593     1     3    17     8
 -0.0014523268     1     3    17    11
 0.0020162565     1     3    17    13
 -0.0012078440     1     3    17    16
 0.0672812246     1     4     2     1
 -0.0070450622     1     4     2     2
 -0.0002566939     1     4     2     6
 -0.0015742538     1     4     2     8
 0.0013727420     1     4     2    11
 0.0010114835     1     4     2    13
 -0.0022389439     1     4     2    16
 -0.0105830660     1     4     3     3
 -0.0016278405     1     4     3     7
 -0.0016999816     1     4     3     9
 0.0028137120     1     4     3    12
 -0.0016829504     1     4     3    17
 -0.9509836157     1     4     4     1
 -0.0360862036     1     4     4     2
 -0.0069234439     1     4     4     6
 -0.0023719877     1     4     4     8
 -0.0094976636     1     4     4    11
 -0.0014699670     1     4     4    13
 -0.0097278953     1     4     4    16
 -0.0136585935     1     4     5     5
 0.0054759458     1     4     5    10
 0.0011587065     1     4     5    15
 -0.0606066534     1     4     6     1
 -0.0052325766     1     4     6     2
 -0.0026236841     1     4     6     6
 0.0006919644     1     4     6     8
 -0.0031509444     1     4     6    11
 -0.0012243473     1     4     6    13
 -0.0016345092     1     4     6    16
 -0.0021706072     1     4     7     3
 -0.0014595353     1     4     7     7
 0.0007899725     1     4     7     9
 0.0017519396     1     4     7    12
 -0.0001687103     1     4     7    17
 0.1254211589     1     4     8     1
 0.0057157878     1     4     8     2
 0.0025669979     1     4     8     6
 0.0018445583     1     4     8     8
 0.0009513269     1     4     8    11
 0.0018269005     1     4     8    13
 0.0027010786     1     4     8    16
 0.0010885510     1     4     9     3
 0.0015081362     1     4     9     7
 0.0001103639     1     4     9     9
 -0.0035194839     1     4     9    12
 -0.0011938471     1     4     9    17
 0.0044950068     1     4    10     5
 -0.0022587409     1     4    10    10
 0.0014883350     1     4    10    15
 -0.1632629077     1     4    11     1
 -0.0120205375     1     4    11     2
 -0.0045058223     1     4    11     6
 -0.0020916248     1     4    11     8
 -0.0062333866     1     4    11    11
 -0.0025528558     1     4    11    13
 -0.0049611506     1     4    11    16
 0.0046338562     1     4    12     3
 0.0019128293     1     4    12     7
 -0.0019557102     1     4    12     9
 -0.0048019810     1     4    12    12
 0.0006038488     1     4    12    17
 -0.0588443257     1     4    13     1
 -0.0046773262     1     4    13     2
 -0.0022235047     1     4    13     6
 0.0011592657     1     4    13     8
 -0.0036716431     1     4    13    11
 -0.0029736072     1     4    13    13
 -0.0011005759     1     4    13    16
 -0.0018776658     1     4    14    14
 -0.0013076431     1     4    15     5
 0.0027726727     1     4    15    10
 -0.0018395657     1     4    15    15
 0.0845595825     1     4    16     1
 0.0021904280     1     4    16     2
 0.0007572125     1     4    16     6
 0.0008661145     1     4    16     8
 0.0002440229     1     4    16    11
 0.0007441047     1     4    16    13
 0.0008982539     1     4    16    16
 -0.0010523179     1     4    17     3
 0.0000648527     1     4    17     7
 -0.0015886889     1     4    17     9
 0.0000078508     1     4    17    12
 -0.0009761546     1     4    17    17
 -0.0027305076     1     5     2    10
 0.0014735695     1     5     2    15
 -0.0029318905     1     5     3    14
 0.0006511897     1     5     4    10
 0.0026607299     1     5     4    15
 -0.9967847759     1     5     5     1
 -0.0409154877     1     5     5     2
 0.0136585935     1     5     5     4
 -0.0064586753     1     5     5     6
 -0.0072186005     1     5     5     8
 -0.0076816712     1     5     5    11
 -0.0035230776     1     5     5    13
 -0.0097422003     1     5     5    16
 0.0020966262     1     5     6    10
 -0.0001381287     1     5     6    15
 0.0005111975     1     5     7    14
 -0.0001874922     1     5     8    10
 0.0002215790     1     5     8    15
 0.0000673775     1     5     9    14
 0.2274089229     1     5    10     1
 0.0130632327     1     5    10     2
 -0.0044950068     1     5    10     4
 0.0048753763     1     5    10     6
 0.0028312283     1     5    10     8
 0.0025984490     1     5    10    11
 0.0015521490     1     5    10    13
 0.0077497117     1     5    10    16
 -0.0008389302     1     5    11    10
 -0.0006912142     1     5    11    15
 -0.0003098253     1     5    12    14
 0.0000011142     1     5    13    10
 0.0001488281     1     5    13    15
 -0.0001648132     1     5    14     3
 0.0012833792     1     5    14     7
 -0.0003554013     1     5    14     9
 -0.0020810301     1     5    14    12
 0.0001987166     1     5    14    17
 -0.0564329700     1     5    15     1
 -0.0035527150     1     5    15     2
 0.0013076431     1     5    15     4
 -0.0014827579     1     5    15     6
 -0.0000107326     1     5    15     8
 -0.0029983644     1     5    15    11
 -0.0008183284     1     5    15    13
 -0.0008747653     1     5    15    16
 0.0037873491     1     5    16    10
 0.0000191623     1     5    16    15
 -0.0000970535     1     5    17    14
 -0.1081254359     1     6     2     1
 -0.0011032513     1     6     2     2
 0.0002566939     1     6     2     4
 -0.0003962782     1     6     2     8
 0.0004642905     1     6     2    11
 0.0002882685     1     6     2    13
 -0.0003867295     1     6     2    16
 0.0035742528     1     6     3     3
 0.0011862400     1     6     3     7
 -0.0012127490     1     6     3     9
 -0.0030198225     1     6     3    12
 0.0002649200     1     6     3    17
 -0.0606066534     1     6     4     1
 -0.0054728586     1     6     4     2
 0.0069234439     1     6     4     4
 -0.0018835527     1     6     4     8
 0.0013762787     1     6     4    11
 0.0010141142     1     6     4    13
 -0.0024078387     1     6     4    16
 0.0064586753     1     6     5     5
 -0.0027633118     1     6     5    10
 0.0013432960     1     6     5    15
 -0.2796390317     1     6     6     1
 -0.0009831122     1     6     6     2
 0.0026236841     1     6     6     4
 -0.0004741633     1     6     6     8
 0.0006385662     1     6     6    11
 0.0002583014     1     6     6    13
 -0.0005762871     1     6     6    16
 0.0026915513     1     6     7     3
 0.0006624323     1     6     7     7
 -0.0003745226     1     6     7     9
 -0.0018207285     1     6     7    12
 0.0003277741     1     6     7    17
 -0.0147178226     1     6     8     1
 0.0007880064     1     6     8     2
 -0.0025669979     1     6     8     4
 0.0009810494     1     6     8     8
 -0.0010541025     1     6     8    11
 -0.0001353202     1     6     8    13
 0.0008341310     1     6     8    16
 -0.0008773033     1     6     9     3
 -0.0000536875     1     6     9     7
 0.0002108634     1     6     9     9
 0.0001140610     1     6     9    12
 -0.0003590665     1     6     9    17
 -0.0048753763     1     6    10     5
 0.0022800340     1     6    10    10
 -0.0004933621     1     6    10    15
 -0.1065901197     1     6    11     1
 -0.0022676433     1     6    11     2
 0.0045058223     1     6    11     4
 -0.0014801747     1     6    11     8
 0.0009723561     1     6    11    11
 0.0003712016     1     6    11    13
 -0.0014510254     1     6    11    16
 -0.0042904872     1     6    12     3
 -0.0012353984     1     6    12     7
 0.0005316838     1     6    12     9
 0.0027738627     1     6    12    12
 -0.0004988739     1     6    12    17
 -0.0477620683     1     6    13     1
 -0.0008231747     1     6    13     2
 0.0022235047     1     6    13     4
 -0.0003021442     1     6    13     8
 0.0003586599     1     6    13    11
 -0.0001529429     1     6    13    13
 -0.0004475700     1     6    13    16
 -0.0003624544     1     6    14    14
 0.0014827579     1     6    15     5
 -0.0002920699     1     6    15    10
 -0.0001184401     1     6    15    15
 -0.0733646692     1     6    16     1
 0.0001002535     1     6    16     2
 -0.0007572125     1     6    16     4
 0.0003815810     1     6    16     8
 -0.0003298861     1     6    16    11
 -0.0000045368     1     6    16    13
 0.0003096873     1     6    16    16
 0.0006820896     1     6    17     3
 0.0002858266     1     6    17     7
 -0.0004567947     1     6    17     9
 -0.0006296760     1     6    17    12
 -0.0000817821     1     6    17    17
 -0.0015822827     1     7     2     3
 -0.0001485528     1     7     2     9
 -0.0003864063     1     7     2    12
 0.0000880524     1     7     2    17
 -0.1194565017     1     7     3     1
 -0.0085500026     1     7     3     2
 0.0016278405     1     7     3     4
 -0.0011862400     1     7     3     6
 -0.0006971736     1     7     3     8
 -0.0005613234     1     7     3    11
 -0.0011467730     1     7     3    13
 -0.0023427969     1     7     3    16
 -0.0007049559     1     7     4     3
 -0.0007261310     1     7     4     9
 -0.0001662304     1     7     4    12
 -0.0002349899     1     7     4    17
 -0.0007752430     1     7     5    14
 0.0014985724     1     7     6     3
 -0.0003205050     1     7     6     9
 -0.0005828707     1     7     6    12
 0.0000416610     1     7     6    17
 -0.2409991822     1     7     7     1
 -0.0021323315     1     7     7     2
 0.0014595353     1     7     7     4
 -0.0006624323     1     7     7     6
 -0.0006014748     1     7     7     8
 -0.0001866208     1     7     7    11
 -0.0000076920     1     7     7    13
 -0.0008124491     1     7     7    16
 0.0007591590     1     7     8     3
 -0.0003385589     1     7     8     9
 0.0001113023     1     7     8    12
 -0.0001360978     1     7     8    17
 0.0304752067     1     7     9     1
 0.0010648583     1     7     9     2
 -0.0015081362     1     7     9     4
 0.0000536875     1     7     9     6
 -0.0000077392     1     7     9     8
 0.0002270194     1     7     9    11
 0.0001976753     1     7     9    13
 0.0003560532     1     7     9    16
 -0.0002214459     1     7    10    14
 0.0010733456     1     7    11     3
 0.0001086321     1     7    11     9
 0.0000955576     1     7    11    12
 -0.0003671502     1     7    11    17
 0.1283170654     1     7    12     1
 0.0048047825     1     7    12     2
 -0.0019128293     1     7    12     4
 0.0012353984     1     7    12     6
 0.0011440957     1     7    12     8
 0.0012475305     1     7    12    11
 0.0005594349     1     7    12    13
 0.0020745045     1     7    12    16
 -0.0007371855     1     7    13     3
 0.0001816649     1     7    13     9
 0.0002361803     1     7    13    12
 0.0005588137     1     7    13    17
 -0.0012833792     1     7    14     5
 -0.0000043068     1     7    14    10
 0.0004496442     1     7    14    15
 0.0005101893     1     7    15    14
 0.0000309731     1     7    16     3
 -0.0000999990     1     7    16     9
 0.0003294283     1     7    16    12
 -0.0000469275     1     7    16    17
 -0.0185788321     1     7    17     1
 -0.0007934873     1     7    17     2
 -0.0000648527     1     7    17     4
 -0.0002858266     1     7    17     6
 -0.0002819756     1     7    17     8
 -0.0006183304     1     7    17    11
 0.0004868576     1     7    17    13
 -0.0003279559     1     7    17    16
 -0.0547489381     1     8     2     1
 0.0020053651     1     8     2     2
 0.0015742538     1     8     2     4
 0.0003962782     1     8     2     6
 0.0005157083     1     8     2    11
 0.0001068999     1     8     2    13
 0.0004448877     1     8     2    16
 0.0036309350     1     8     3     3
 0.0006971736     1     8     3     7
 0.0001937166     1     8     3     9
 -0.0014512551     1     8     3    12
 0.0005175993     1     8     3    17
 0.1254211589     1     8     4     1
 0.0078639140     1     8     4     2
 0.0023719877     1     8     4     4
 0.0018835527     1     8     4     6
 0.0030792042     1     8     4    11
 0.0006709734     1     8     4    13
 0.0018289357     1     8     4    16
 0.0072186005     1     8     5     5
 -0.0030616267     1     8     5    10
 0.0002416707     1     8     5    15
 -0.0147178226     1     8     6     1
 0.0011773531     1     8     6     2
 -0.0006919644     1     8     6     4
 0.0004741633     1     8     6     6
 0.0004276265     1     8     6    11
 0.0001677756     1     8     6    13
 0.0004513188     1     8     6    16
 0.0014469800     1     8     7     3
 0.0006014748     1     8     7     7
 -0.0003309090     1     8     7     9
 -0.0010342459     1     8     7    12
 0.0001464389     1     8     7    17
 -0.3088740581     1     8     8     1
 -0.0020659665     1     8     8     2
 -0.0018445583     1     8     8     4
 -0.0009810494     1     8     8     6
 -0.0011727349     1     8     8    11
 -0.0007883834     1     8     8    13
 -0.0004789872     1     8     8    16
 0.0009823521     1     8     9     3
 0.0000077392     1     8     9     7
 -0.0002206023     1     8     9     9
 0.0000039472     1     8     9    12
 0.0003811370     1     8     9    17
 -0.0028312283     1     8    10     5
 0.0013306662     1     8    10    10
 -0.0005747409     1     8    10    15
 0.0208199090     1     8    11     1
 0.0035053309     1     8    11     2
 0.0020916248     1     8    11     4
 0.0014801747     1     8    11     6
 0.0024834264     1     8    11    11
 0.0010076130     1     8    11    13
 0.0009853677     1     8    11    16
 -0.0035227650     1     8    12     3
 -0.0011440957     1     8    12     7
 0.0008353053     1     8    12     9
 0.0027200540     1     8    12    12
 -0.0004117508     1     8    12    17
 0.0204348947     1     8    13     1
 0.0010362891     1     8    13     2
 -0.0011592657     1     8    13     4
 0.0003021442     1     8    13     6
 0.0003361224     1     8    13    11
 0.0004621606     1     8    13    13
 0.0003774032     1     8    13    16
 0.0004082699     1     8    14    14
 0.0000107326     1     8    15     5
 -0.0004951140     1     8    15    10
 0.0003658227     1     8    15    15
 -0.0601028909     1     8    16     1
 -0.0010005415     1     8    16     2
 -0.0008661145     1     8    16     4
 -0.0003815810     1     8    16     6
 -0.0005329447     1     8    16    11
 -0.0003553098     1     8    16    13
 -0.0001587487     1     8    16    16
 0.0012877593     1     8    17     3
 0.0002819756     1     8    17     7
 0.0001911217     1     8    17     9
 -0.0006736181     1     8    17    12
 0.0003321921     1     8    17    17
 0.0013972227     1     9     2     3
 0.0001485528     1     9     2     7
 -0.0001256396     1     9     2    12
 0.0000060494     1     9     2    17
 0.0466981641     1     9     3     1
 0.0052506031     1     9     3     2
 0.0016999816     1     9     3     4
 0.0012127490     1     9     3     6
 -0.0001937166     1     9     3     8
 0.0016288594     1     9     3    11
 0.0011476510     1     9     3    13
 0.0011127223     1     9     3    16
 0.0028342440     1     9     4     3
 0.0007261310     1     9     4     7
 -0.0015728666     1     9     4    12
 0.0003844886     1     9     4    17
 0.0004140231     1     9     5    14
 0.0003202890     1     9     6     3
 0.0003205050     1     9     6     7
 -0.0004176302     1     9     6    12
 0.0000976387     1     9     6    17
 0.0304752067     1     9     7     1
 0.0012158936     1     9     7     2
 -0.0007899725     1     9     7     4
 0.0003745226     1     9     7     6
 0.0003309090     1     9     7     8
 0.0001189242     1     9     7    11
 0.0000171902     1     9     7    13
 0.0004567008     1     9     7    16
 0.0007749555     1     9     8     3
 0.0003385589     1     9     8     7
 -0.0008303872     1     9     8    12
 0.0001904323     1     9     8    17
 -0.3141062018     1     9     9     1
 -0.0008703311     1     9     9     2
 -0.0001103639     1     9     9     4
 -0.0002108634     1     9     9     6
 0.0002206023     1     9     9     8
 -0.0005797600     1     9     9    11
 -0.0002780806     1     9     9    13
 -0.0001047807     1     9     9    16
 0.0001114680     1     9    10    14
 -0.0009748585     1     9    11     3
 -0.0001086321     1     9    11     7
 0.0001884387     1     9    11    12
 0.0001696524     1     9    11    17
 -0.0678984804     1     9    12     1
 -0.0026040503     1     9    12     2
 0.0019557102     1     9    12     4
 -0.0005316838     1     9    12     6
 -0.0008353053     1     9    12     8
 -0.0002996938     1     9    12    11
 -0.0001610976     1     9    12    13
 -0.0012479940     1     9    12    16
 -0.0002428831     1     9    13     3
 -0.0001816649     1     9    13     7
 0.0002756039     1     9    13    12
 -0.0003762000     1     9    13    17
 0.0003554013     1     9    14     5
 0.0001534507     1     9    14    10
 -0.0002858168     1     9    14    15
 -0.0002761631     1     9    15    14
 0.0003311181     1     9    16     3
 0.0000999990     1     9    16     7
 -0.0004137802     1     9    16    12
 0.0000602664     1     9    16    17
 -0.0128797029     1     9    17     1
 0.0006918875     1     9    17     2
 0.0015886889     1     9    17     4
 0.0004567947     1     9    17     6
 -0.0001911217     1     9    17     8
 0.0010605773     1     9    17    11
 0.0000202001     1     9    17    13
 0.0000463864     1     9    17    16
 0.0027305076     1    10     2     5
 -0.0003105531     1    10     2    15
 0.0013249205     1    10     3    14
 -0.0006511897     1    10     4     5
 -0.0012920999     1    10     4    15
 0.2274089229     1    10     5     1
 0.0170513418     1    10     5     2
 -0.0054759458     1    10     5     4
 0.0027633118     1    10     5     6
 0.0030616267     1    10     5     8
 0.0033998597     1    10     5    11
 0.0015366264     1    10     5    13
 0.0040101447     1    10     5    16
 -0.0020966262     1    10     6     5
 -0.0001998830     1    10     6    15
 -0.0002175715     1    10     7    14
 0.0001874922     1    10     8     5
 -0.0000788225     1    10     8    15
 -0.0000410223     1    10     9    14
 -0.3956309847     1    10    10     1
 -0.0072457198     1    10    10     2
 0.0022587409     1    10    10     4
 -0.0022800340     1    10    10     6
 -0.0013306662     1    10    10     8
 -0.0013259726     1    10    10    11
 -0.0007660465     1    10    10    13
 -0.0036293161     1    10    10    16
 0.0008389302     1    10    11     5
 0.0003949911     1    10    11    15
 0.0001290185     1    10    12    14
 -0.0000011142     1    10    13     5
 -0.0000705738     1    10    13    15
 0.0020993864     1    10    14     3
 0.0000043068     1    10    14     7
 -0.0001534507     1    10    14     9
 -0.0003620427     1    10    14    12
 0.0001234355     1    10    14    17
 0.0396317502     1    10    15     1
 0.0016133562     1    10    15     2
 -0.0027726727     1    10    15     4
 0.0002920699     1    10    15     6
 0.0004951140     1    10    15     8
 0.0003991171     1    10    15    11
 0.0000025211     1    10    15    13
 0.0006373024     1    10    15    16
 -0.0037873491     1    10    16     5
 -0.0004709528     1    10    16    15
 0.0000435772     1    10    17    14
 -0.1117939801     1    11     2     1
 -0.0034434323     1    11     2     2
 -0.0013727420     1    11     2     4
 -0.0004642905     1    11     2     6
 -0.0005157083     1    11     2     8
 0.0002328275     1    11     2    13
 -0.0009615379     1    11     2    16
 0.0002597234     1    11     3     3
 0.0005613234     1    11     3     7
 -0.0016288594     1    11     3     9
 -0.0018882379     1    11     3    12
 -0.0002886827     1    11     3    17
 -0.1632629077     1    11     4     1
 -0.0144991343     1    11     4     2
 0.0094976636     1    11     4     4
 -0.0013762787     1    11     4     6
 -0.0030792042     1    11     4     8
 0.0011261076     1    11     4    13
 -0.0052725765     1    11     4    16
 0.0076816712     1    11     5     5
 -0.0033998597     1    11     5    10
 0.0022878073     1    11     5    15
 -0.1065901197     1    11     6     1
 -0.0027122613     1    11     6     2
 0.0031509444     1    11     6     4
 -0.0006385662     1    11     6     6
 -0.0004276265     1    11     6     8
 0.0000119508     1    11     6    13
 -0.0011240123     1    11     6    16
 0.0016583007     1    11     7     3
 0.0001866208     1    11     7     7
 -0.0001189242     1    11     7     9
 -0.0011541383     1    11     7    12
 0.0002507337     1    11     7    17
 0.0208199090     1    11     8     1
 0.0030213675     1    11     8     2
 -0.0009513269     1    11     8     4
 0.0010541025     1    11     8     6
 0.0011727349     1    11     8     8