&FCI NORB= 15,NELEC= 10,MS2=0,
 ORBSYM=1,1,1,1,1,1,1,1,1,1,1,1,1,1,1
 ISYM=1,
&END
 0.9842327227     1     1     2     2
 0.0666744966     1     1     2     4
 -0.1067554402     1     1     2     6
 -0.0540122426     1     1     2     8
 -0.1106445695     1     1     2    11
 -0.0539584833     1     1     2    13
 0.8707715663     1     1     3     3
 -0.1174286573     1     1     3     7
 -0.0460137815     1     1     3     9
 -0.2237284693     1     1     3    12
 0.0666744966     1     1     4     2
 0.9503571342     1     1     4     4
 0.0598925878     1     1     4     6
 -0.1229690780     1     1     4     8
 0.1605704185     1     1     4    11
 0.0581157828     1     1     4    13
 0.9965573847     1     1     5     5
 -0.2231706104     1     1     5    10
 -0.0554300554     1     1     5    15
 -0.1067554402     1     1     6     2
 0.0598925878     1     1     6     4
 0.2796873529     1     1     6     6
 0.0147228627     1     1     6     8
 0.1066072929     1     1     6    11
 0.0477670252     1     1     6    13
 -0.1174286573     1     1     7     3
 0.2410259217     1     1     7     7
 0.0304796808     1     1     7     9
 0.1283520995     1     1     7    12
 -0.0540122426     1     1     8     2
 -0.1229690780     1     1     8     4
 0.0147228627     1     1     8     6
 0.3089500365     1     1     8     8
 -0.0208614076     1     1     8    11
 -0.0204458214     1     1     8    13
 -0.0460137815     1     1     9     3
 0.0304796808     1     1     9     7
 0.3141146038     1     1     9     9
 0.0679047574     1     1     9    12
 -0.2231706104     1     1    10     5
 0.3957699255     1     1    10    10
 0.0396560567     1     1    10    15
 -0.1106445695     1     1    11     2
 0.1605704185     1     1    11     4
 0.1066072929     1     1    11     6
 -0.0208614076     1     1    11     8
 0.4230098387     1     1    11    11
 0.0396051174     1     1    11    13
 -0.2237284693     1     1    12     3
 0.1283520995     1     1    12     7
 0.0679047574     1     1    12     9
 0.4508156218     1     1    12    12
 -0.0539584833     1     1    13     2
 0.0581157828     1     1    13     4
 0.0477670252     1     1    13     6
 -0.0204458214     1     1    13     8
 0.0396051174     1     1    13    11
 0.3358767758     1     1    13    13
 0.3247251448     1     1    14    14
 -0.0554300554     1     1    15     5
 0.0396560567     1     1    15    10
 0.3317896627     1     1    15    15
 -0.9842327227     1     2     2     1
 0.0070300722     1     2     2     4
 0.0010885297     1     2     2     6
 -0.0020250737     1     2     2     8
 0.0034324156     1     2     2    11
 0.0014589977     1     2     2    13
 -0.0311417722     1     2     3     3
 0.0085087775     1     2     3     7
 0.0052358362     1     2     3     9
 0.0199682508     1     2     3    12
 -0.0666744966     1     2     4     1
 -0.0360332038     1     2     4     4
 -0.0054686622     1     2     4     6
 0.0078018331     1     2     4     8
 -0.0144548558     1     2     4    11
 -0.0061302055     1     2     4    13
 -0.0408755284     1     2     5     5
 0.0169686151     1     2     5    10
 0.0053342137     1     2     5    15
 0.1067554402     1     2     6     1
 -0.0052193809     1     2     6     4
 -0.0009914466     1     2     6     6
 0.0011750868     1     2     6     8
 -0.0027214064     1     2     6    11
 -0.0011041789     1     2     6    13
 0.0062790809     1     2     7     3
 -0.0021300531     1     2     7     7
 -0.0012139163     1     2     7     9
 -0.0052003827     1     2     7    12
 0.0540122426     1     2     8     1
 0.0056221588     1     2     8     4
 0.0007827142     1     2     8     6
 -0.0020651042     1     2     8     8
 0.0030134577     1     2     8    11
 0.0009466480     1     2     8    13
 0.0035041005     1     2     9     3
 -0.0010625812     1     2     9     7
 -0.0008682947     1     2     9     9
 -0.0024783457     1     2     9    12
 0.0129318183     1     2    10     5
 -0.0072448721     1     2    10    10
 -0.0019274817     1     2    10    15
 0.1106445695     1     2    11     1
 -0.0119169164     1     2    11     4
 -0.0022715855     1     2    11     6
 0.0035008943     1     2    11     8
 -0.0061641284     1     2    11    11
 -0.0024051061     1     2    11    13
 0.0136221735     1     2    12     3
 -0.0047979322     1     2    12     7
 -0.0025987837     1     2    12     9
 -0.0110215537     1     2    12    12
 0.0539584833     1     2    13     1
 -0.0046614702     1     2    13     4
 -0.0008255778     1     2    13     6
 0.0010350724     1     2    13     8
 -0.0021727204     1     2    13    11
 -0.0007032372     1     2    13    13
 0.0002247968     1     2    14    14
 0.0035019994     1     2    15     5
 -0.0016092538     1     2    15    10
 -0.0003843615     1     2    15    15
 0.0015976326     1     3     2     7
 0.0014052397     1     3     2     9
 0.0049984812     1     3     2    12
 -0.8707715663     1     3     3     1
 0.0311417722     1     3     3     2
 0.0105393956     1     3     3     4
 -0.0035290120     1     3     3     6
 -0.0036092059     1     3     3     8
 -0.0002226124     1     3     3    11
 -0.0032829303     1     3     3    13
 -0.0007033749     1     3     4     7
 -0.0028389006     1     3     4     9
 -0.0021417797     1     3     4    12
 0.0026367884     1     3     5    14
 0.0015003257     1     3     6     7
 -0.0003187463     1     3     6     9
 0.0012978790     1     3     6    12
 0.1174286573     1     3     7     1
 -0.0062790809     1     3     7     2
 -0.0022011444     1     3     7     4
 0.0026763435     1     3     7     6
 0.0014455773     1     3     7     8
 0.0016375986     1     3     7    11
 0.0004044230     1     3     7    13
 0.0007606816     1     3     8     7
 -0.0007730618     1     3     8     9
 0.0021391184     1     3     8    12
 0.0460137815     1     3     9     1
 -0.0035041005     1     3     9     2
 -0.0011137921     1     3     9     4
 0.0008708581     1     3     9     6
 -0.0009821061     1     3     9     8
 0.0025741444     1     3     9    11
 0.0013828013     1     3     9    13
 0.0007849471     1     3    10    14
 0.0010754232     1     3    11     7
 0.0009749866     1     3    11     9
 0.0027844337     1     3    11    12
 0.2237284693     1     3    12     1
 -0.0136221735     1     3    12     2
 -0.0046625063     1     3    12     4
 0.0042638137     1     3    12     6
 0.0035190939     1     3    12     8
 0.0046360207     1     3    12    11
 0.0020273632     1     3    12    13
 -0.0007358199     1     3    13     7
 0.0002434699     1     3    13     9
 -0.0008215116     1     3    13    12
 -0.0002338185     1     3    14     5
 0.0021146205     1     3    14    10
 0.0021960373     1     3    14    15
 0.0018192676     1     3    15    14
 -0.0666744966     1     4     2     1
 -0.0070300722     1     4     2     2
 0.0002523435     1     4     2     6
 0.0015914739     1     4     2     8
 -0.0013950156     1     4     2    11
 -0.0010115660     1     4     2    13
 -0.0105393956     1     4     3     3
 0.0016514623     1     4     3     7
 -0.0016905853     1     4     3     9
 0.0028612851     1     4     3    12
 -0.9503571342     1     4     4     1
 0.0360332038     1     4     4     2
 -0.0068956670     1     4     4     6
 -0.0023045919     1     4     4     8
 -0.0095190714     1     4     4    11
 -0.0014788416     1     4     4    13
 -0.0136093838     1     4     5     5
 0.0055306130     1     4     5    10
 -0.0011500980     1     4     5    15
 -0.0598925878     1     4     6     1
 0.0052193809     1     4     6     2
 -0.0026174269     1     4     6     6
 0.0006941496     1     4     6     8
 -0.0031449612     1     4     6    11
 -0.0012208682     1     4     6    13
 0.0022011444     1     4     7     3
 -0.0014581401     1     4     7     7
 -0.0007887021     1     4     7     9
 -0.0017512016     1     4     7    12
 0.1229690780     1     4     8     1
 -0.0056221588     1     4     8     2
 0.0025478561     1     4     8     6
 0.0018467381     1     4     8     8
 0.0009218029     1     4     8    11
 0.0018127933     1     4     8    13
 0.0011137921     1     4     9     3
 -0.0015075857     1     4     9     7
 0.0001110078     1     4     9     9
 -0.0035211205     1     4     9    12
 0.0045422896     1     4    10     5
 -0.0022546039     1     4    10    10
 -0.0014855678     1     4    10    15
 -0.1605704185     1     4    11     1
 0.0119169164     1     4    11     2
 -0.0044841504     1     4    11     6
 -0.0020886820     1     4    11     8
 -0.0062025171     1     4    11    11
 -0.0025383988     1     4    11    13
 0.0046625063     1     4    12     3
 -0.0019083662     1     4    12     7
 -0.0019514685     1     4    12     9
 -0.0047928633     1     4    12    12
 -0.0581157828     1     4    13     1
 0.0046614702     1     4    13     2
 -0.0022156821     1     4    13     6
 0.0011586668     1     4    13     8
 -0.0036609327     1     4    13    11
 -0.0029661581     1     4    13    13
 -0.0018758956     1     4    14    14
 0.0014098116     1     4    15     5
 -0.0027880611     1     4    15    10
 -0.0018408501     1     4    15    15
 0.0027637076     1     5     2    10
 0.0014833892     1     5     2    15
 0.0029549703     1     5     3    14
 0.0006702659     1     5     4    10
 -0.0026803354     1     5     4    15
 -0.9965573847     1     5     5     1
 0.0408755284     1     5     5     2
 0.0136093838     1     5     5     4
 -0.0063979833     1     5     5     6
 -0.0071998168     1     5     5     8
 -0.0076600765     1     5     5    11
 -0.0035088378     1     5     5    13
 0.0021015352     1     5     6    10
 0.0001394492     1     5     6    15
 0.0005098352     1     5     7    14
 -0.0001879282     1     5     8    10
 -0.0002213141     1     5     8    15
 -0.0000676837     1     5     9    14
 0.2231706104     1     5    10     1
 -0.0129318183     1     5    10     2
 -0.0045422896     1     5    10     4
 0.0048446206     1     5    10     6
 0.0028302750     1     5    10     8
 0.0025571781     1     5    10    11
 0.0015338642     1     5    10    13
 -0.0008395893     1     5    11    10
 0.0006894158     1     5    11    15
 0.0003092154     1     5    12    14
 0.0000018856     1     5    13    10
 -0.0001485570     1     5    13    15
 0.0002338185     1     5    14     3
 0.0012788237     1     5    14     7
 0.0003536043     1     5    14     9
 0.0020754898     1     5    14    12
 0.0554300554     1     5    15     1
 -0.0035019994     1     5    15     2
 -0.0014098116     1     5    15     4
 0.0014713958     1     5    15     6
 0.0000137472     1     5    15     8
 0.0029776884     1     5    15    11
 0.0008102819     1     5    15    13
 0.1067554402     1     6     2     1
 -0.0010885297     1     6     2     2
 -0.0002523435     1     6     2     4
 0.0003995694     1     6     2     8
 -0.0004713003     1     6     2    11
 -0.0002898091     1     6     2    13
 0.0035290120     1     6     3     3
 -0.0011677148     1     6     3     7
 -0.0012053063     1     6     3     9
 -0.0029916954     1     6     3    12
 -0.0598925878     1     6     4     1
 0.0054686622     1     6     4     2
 0.0068956670     1     6     4     4
 -0.0018647745     1     6     4     8
 0.0013754510     1     6     4    11
 0.0010114268     1     6     4    13
 0.0063979833     1     6     5     5
 -0.0027236012     1     6     5    10
 -0.0013309981     1     6     5    15
 -0.2796873529     1     6     6     1
 0.0009914466     1     6     6     2
 0.0026174269     1     6     6     4
 -0.0004741274     1     6     6     8
 0.0006384635     1     6     6    11
 0.0002572602     1     6     6    13
 -0.0026763435     1     6     7     3
 0.0006583111     1     6     7     7
 0.0003740194     1     6     7     9
 0.0018218313     1     6     7    12
 -0.0147228627     1     6     8     1
 -0.0007827142     1     6     8     2
 -0.0025478561     1     6     8     4
 0.0009770063     1     6     8     8
 -0.0010546974     1     6     8    11
 -0.0001345621     1     6     8    13
 -0.0008708581     1     6     9     3
 0.0000531238     1     6     9     7
 0.0002058315     1     6     9     9
 0.0001130104     1     6     9    12
 -0.0048446206     1     6    10     5
 0.0022839041     1     6    10    10
 0.0004936835     1     6    10    15
 -0.1066072929     1     6    11     1
 0.0022715855     1     6    11     2
 0.0044841504     1     6    11     4
 -0.0014793003     1     6    11     8
 0.0009695788     1     6    11    11
 0.0003719836     1     6    11    13
 -0.0042638137     1     6    12     3
 0.0012317918     1     6    12     7
 0.0005302796     1     6    12     9
 0.0027698049     1     6    12    12
 -0.0477670252     1     6    13     1
 0.0008255778     1     6    13     2
 0.0022156821     1     6    13     4
 -0.0003018593     1     6    13     8
 0.0003599535     1     6    13    11
 -0.0001579355     1     6    13    13
 -0.0003668017     1     6    14    14
 -0.0014713958     1     6    15     5
 0.0002955195     1     6    15    10
 -0.0001231241     1     6    15    15
 -0.0015976326     1     7     2     3
 -0.0001494748     1     7     2     9
 -0.0003800037     1     7     2    12
 0.1174286573     1     7     3     1
 -0.0085087775     1     7     3     2
 -0.0016514623     1     7     3     4
 0.0011677148     1     7     3     6
 0.0006966630     1     7     3     8
 0.0005266895     1     7     3    11
 0.0011332320     1     7     3    13
 0.0007033749     1     7     4     3
 0.0007279332     1     7     4     9
 0.0001704631     1     7     4    12
 -0.0007789591     1     7     5    14
 -0.0015003257     1     7     6     3
 0.0003203611     1     7     6     9
 0.0005876606     1     7     6    12
 -0.2410259217     1     7     7     1
 0.0021300531     1     7     7     2
 0.0014581401     1     7     7     4
 -0.0006583111     1     7     7     6
 -0.0006005756     1     7     7     8
 -0.0001842966     1     7     7    11
 -0.0000084980     1     7     7    13
 -0.0007606816     1     7     8     3
 0.0003373287     1     7     8     9
 -0.0001086610     1     7     8    12
 -0.0304796808     1     7     9     1
 0.0010625812     1     7     9     2
 0.0015075857     1     7     9     4
 -0.0000531238     1     7     9     6
 0.0000067315     1     7     9     8
 -0.0002235882     1     7     9    11
 -0.0001975247     1     7     9    13
 -0.0002195376     1     7    10    14
 -0.0010754232     1     7    11     3
 -0.0001074123     1     7    11     9
 -0.0000906011     1     7    11    12
 -0.1283520995     1     7    12     1
 0.0047979322     1     7    12     2
 0.0019083662     1     7    12     4
 -0.0012317918     1     7    12     6
 -0.0011423849     1     7    12     8
 -0.0012418998     1     7    12    11
 -0.0005580475     1     7    12    13
 0.0007358199     1     7    13     3
 -0.0001808921     1     7    13     9
 -0.0002379539     1     7    13    12
 -0.0012788237     1     7    14     5
 0.0000037571     1     7    14    10
 -0.0004475147     1     7    14    15
 -0.0005077290     1     7    15    14
 0.0540122426     1     8     2     1
 0.0020250737     1     8     2     2
 -0.0015914739     1     8     2     4
 -0.0003995694     1     8     2     6
 -0.0005229921     1     8     2    11
 -0.0001092218     1     8     2    13
 0.0036092059     1     8     3     3
 -0.0006966630     1     8     3     7
 0.0001971639     1     8     3     9
 -0.0014552005     1     8     3    12
 0.1229690780     1     8     4     1
 -0.0078018331     1     8     4     2
 0.0023045919     1     8     4     4
 0.0018647745     1     8     4     6
 0.0030418658     1     8     4    11
 0.0006601197     1     8     4    13
 0.0071998168     1     8     5     5
 -0.0030674293     1     8     5    10
 -0.0002392647     1     8     5    15
 -0.0147228627     1     8     6     1
 -0.0011750868     1     8     6     2
 -0.0006941496     1     8     6     4
 0.0004741274     1     8     6     6
 0.0004264215     1     8     6    11
 0.0001683141     1     8     6    13
 -0.0014455773     1     8     7     3
 0.0006005756     1     8     7     7
 0.0003305120     1     8     7     9
 0.0010345791     1     8     7    12
 -0.3089500365     1     8     8     1
 0.0020651042     1     8     8     2
 -0.0018467381     1     8     8     4
 -0.0009770063     1     8     8     6
 -0.0011733485     1     8     8    11
 -0.0007873595     1     8     8    13
 0.0009821061     1     8     9     3
 -0.0000067315     1     8     9     7
 -0.0002223625     1     8     9     9
 0.0000002437     1     8     9    12
 -0.0028302750     1     8    10     5
 0.0013297412     1     8    10    10
 0.0005741164     1     8    10    15
 0.0208614076     1     8    11     1
 -0.0035008943     1     8    11     2
 0.0020886820     1     8    11     4
 0.0014793003     1     8    11     6
 0.0024812501     1     8    11    11
 0.0010073550     1     8    11    13
 -0.0035190939     1     8    12     3
 0.0011423849     1     8    12     7
 0.0008345956     1     8    12     9
 0.0027196161     1     8    12    12
 0.0204458214     1     8    13     1
 -0.0010350724     1     8    13     2
 -0.0011586668     1     8    13     4
 0.0003018593     1     8    13     6
 0.0003345580     1     8    13    11
 0.0004598138     1     8    13    13
 0.0004076672     1     8    14    14
 -0.0000137472     1     8    15     5
 0.0004923127     1     8    15    10
 0.0003647333     1     8    15    15
 -0.0014052397     1     9     2     3
 0.0001494748     1     9     2     7
 0.0001292562     1     9     2    12
 0.0460137815     1     9     3     1
 -0.0052358362     1     9     3     2
 0.0016905853     1     9     3     4
 0.0012053063     1     9     3     6
 -0.0001971639     1     9     3     8
 0.0016191829     1     9     3    11
 0.0011397064     1     9     3    13
 0.0028389006     1     9     4     3
 -0.0007279332     1     9     4     7
 -0.0015730300     1     9     4    12
 -0.0004133122     1     9     5    14
 0.0003187463     1     9     6     3
 -0.0003203611     1     9     6     7
 -0.0004177963     1     9     6    12
 -0.0304796808     1     9     7     1
 0.0012139163     1     9     7     2
 0.0007887021     1     9     7     4
 -0.0003740194     1     9     7     6
 -0.0003305120     1     9     7     8
 -0.0001175629     1     9     7    11
 -0.0000176530     1     9     7    13
 0.0007730618     1     9     8     3
 -0.0003373287     1     9     8     7
 -0.0008325895     1     9     8    12
 -0.3141146038     1     9     9     1
 0.0008682947     1     9     9     2
 -0.0001110078     1     9     9     4
 -0.0002058315     1     9     9     6
 0.0002223625     1     9     9     8
 -0.0005779751     1     9     9    11
 -0.0002775589     1     9     9    13
 -0.0001116227     1     9    10    14
 -0.0009749866     1     9    11     3
 0.0001074123     1     9    11     7
 0.0001916176     1     9    11    12
 -0.0679047574     1     9    12     1
 0.0025987837     1     9    12     2
 0.0019514685     1     9    12     4
 -0.0005302796     1     9    12     6
 -0.0008345956     1     9    12     8
 -0.0002961355     1     9    12    11
 -0.0001611465     1     9    12    13
 -0.0002434699     1     9    13     3
 0.0001808921     1     9    13     7
 0.0002766640     1     9    13    12
 -0.0003536043     1     9    14     5
 -0.0001514475     1     9    14    10
 -0.0002847209     1     9    14    15
 -0.0002747772     1     9    15    14
 -0.0027637076     1    10     2     5
 -0.0003155282     1    10     2    15
 -0.0013264942     1    10     3    14
 -0.0006702659     1    10     4     5
 0.0012866980     1    10     4    15
 0.2231706104     1    10     5     1
 -0.0169686151     1    10     5     2
 -0.0055306130     1    10     5     4
 0.0027236012     1    10     5     6
 0.0030674293     1    10     5     8
 0.0033385680     1    10     5    11
 0.0015126889     1    10     5    13
 -0.0021015352     1    10     6     5
 0.0001980836     1    10     6    15
 -0.0002220647     1    10     7    14
 0.0001879282     1    10     8     5
 0.0000805445     1    10     8    15
 0.0000397626     1    10     9    14
 -0.3957699255     1    10    10     1
 0.0072448721     1    10    10     2
 0.0022546039     1    10    10     4
 -0.0022839041     1    10    10     6
 -0.0013297412     1    10    10     8
 -0.0013213614     1    10    10    11
 -0.0007647674     1    10    10    13
 0.0008395893     1    10    11     5
 -0.0004010216     1    10    11    15
 -0.0001330553     1    10    12    14
 -0.0000018856     1    10    13     5
 0.0000702296     1    10    13    15
 -0.0021146205     1    10    14     3
 -0.0000037571     1    10    14     7
 0.0001514475     1    10    14     9
 0.0003583825     1    10    14    12
 -0.0396560567     1    10    15     1
 0.0016092538     1    10    15     2
 0.0027880611     1    10    15     4
 -0.0002955195     1    10    15     6
 -0.0004923127     1    10    15     8
 -0.0004060787     1    10    15    11
 -0.0000044915     1    10    15    13
 0.1106445695     1    11     2     1
 -0.0034324156     1    11     2     2
 0.0013950156     1    11     2     4
 0.0004713003     1    11     2     6
 0.0005229921     1    11     2     8
 -0.0002307751     1    11     2    13
 0.0002226124     1    11     3     3
 -0.0005266895     1    11     3     7
 -0.0016191829     1    11     3     9
 -0.0018261261     1    11     3    12
 -0.1605704185     1    11     4     1
 0.0144548558     1    11     4     2
 0.0095190714     1    11     4     4
 -0.0013754510     1    11     4     6
 -0.0030418658     1    11     4     8
 0.0011208488     1    11     4    13
 0.0076600765     1    11     5     5
 -0.0033385680     1    11     5    10
 -0.0022761043     1    11     5    15
 -0.1066072929     1    11     6     1
 0.0027214064     1    11     6     2
 0.0031449612     1    11     6     4
 -0.0006384635     1    11     6     6
 -0.0004264215     1    11     6     8
 0.0000117362     1    11     6    13
 -0.0016375986     1    11     7     3
 0.0001842966     1    11     7     7
 0.0001175629     1    11     7     9
 0.0011526353     1    11     7    12
 0.0208614076     1    11     8     1
 -0.0030134577     1    11     8     2
 -0.0009218029     1    11     8     4
 0.0010546974     1    11     8     6
 0.0011733485     1    11     8     8
 0.0006710572     1    11     8    13
 -0.0025741444     1    11     9     3
 0.0002235882     1    11     9     7
 0.0005779751     1    11     9     9
 0.0004878427     1    11     9    12
 -0.0025571781     1    11    10     5
 0.0013213614     1    11    10    10
 0.0000052001     1    11    10    15
 -0.4230098387     1    11    11     1
 0.0061641284     1    11    11     2
 0.0062025171     1    11    11     4
 -0.0009695788     1    11    11     6
 -0.0024812501     1    11    11     8
 -0.0000417357     1    11    11    13
 -0.0046360207     1    11    12     3
 0.0012418998     1    11    12     7
 0.0002961355     1    11    12     9
 0.0026858453     1    11    12    12
 -0.0396051174     1    11    13     1
 0.0021727204     1    11    13     2
 0.0036609327     1    11    13     4
 -0.0003599535     1    11    13     6
 -0.0003345580     1    11    13     8
 -0.0006976196     1    11    13    13
 -0.0008602292     1    11    14    14
 -0.0029776884     1    11    15     5
 0.0004060787     1    11    15    10
 -0.0003643598     1    11    15    15
 -0.0049984812     1    12     2     3
 0.0003800037     1    12     2     7
 -0.0001292562     1    12     2     9
 0.2237284693     1    12     3     1
 -0.0199682508     1    12     3     2
 -0.0028612851     1    12     3     4
 0.0029916954     1    12     3     6
 0.0014552005     1    12     3     8
 0.0018261261     1    12     3    11
 0.0028417284     1    12     3    13
 0.0021417797     1    12     4     3
 -0.0001704631     1    12     4     7
 0.0015730300     1    12     4     9
 -0.0017698606     1    12     5    14
 -0.0012978790     1    12     6     3
 -0.0005876606     1    12     6     7
 0.0004177963     1    12     6     9
 -0.1283520995     1    12     7     1
 0.0052003827     1    12     7     2
 0.0017512016     1    12     7     4
 -0.0018218313     1    12     7     6
 -0.0010345791     1    12     7     8
 -0.0011526353     1    12     7    11
 -0.0003230632     1    12     7    13
 -0.0021391184     1    12     8     3
 0.0001086610     1    12     8     7
 0.0008325895     1    12     8     9
 -0.0679047574     1    12     9     1
 0.0024783457     1    12     9     2
 0.0035211205     1    12     9     4
 -0.0001130104     1    12     9     6
 -0.0000002437     1    12     9     8
 -0.0004878427     1    12     9    11
 -0.0004376984     1    12     9    13
 -0.0004908846     1    12    10    14
 -0.0027844337     1    12    11     3
 0.0000906011     1    12    11     7
 -0.0001916176     1    12    11     9
 -0.4508156218     1    12    12     1
 0.0110215537     1    12    12     2
 0.0047928633     1    12    12     4
 -0.0027698049     1    12    12     6
 -0.0027196161     1    12    12     8
 -0.0026858453     1    12    12    11
 -0.0012233989     1    12    12    13
 0.0008215116     1    12    13     3
 0.0002379539     1    12    13     7
 -0.0002766640     1    12    13     9
 -0.0020754898     1    12    14     5
 -0.0003583825     1    12    14    10
 -0.0011172826     1    12    14    15
 -0.0011518249     1    12    15    14
 0.0539584833     1    13     2     1
 -0.0014589977     1    13     2     2
 0.0010115660     1    13     2     4
 0.0002898091     1    13     2     6
 0.0001092218     1    13     2     8
 0.0002307751     1    13     2    11
 0.0032829303     1    13     3     3
 -0.0011332320     1    13     3     7
 -0.0011397064     1    13     3     9
 -0.0028417284     1    13     3    12
 -0.0581157828     1    13     4     1
 0.0061302055     1    13     4     2
 0.0014788416     1    13     4     4
 -0.0010114268     1    13     4     6
 -0.0006601197     1    13     4     8
 -0.0011208488     1    13     4    11
 0.0035088378     1    13     5     5
 -0.0015126889     1    13     5    10
 -0.0009536915     1    13     5    15
 -0.0477670252     1    13     6     1
 0.0011041789     1    13     6     2
 0.0012208682     1    13     6     4
 -0.0002572602     1    13     6     6
 -0.0001683141     1    13     6     8
 -0.0000117362     1    13     6    11
 -0.0004044230     1    13     7     3
 0.0000084980     1    13     7     7
 0.0000176530     1    13     7     9
 0.0003230632     1    13     7    12
 0.0204458214     1    13     8     1
 -0.0009466480     1    13     8     2
 -0.0018127933     1    13     8     4
 0.0001345621     1    13     8     6
 0.0007873595     1    13     8     8
 -0.0006710572     1    13     8    11
 -0.0013828013     1    13     9     3
 0.0001975247     1    13     9     7
 0.0002775589     1    13     9     9
 0.0004376984     1    13     9    12
 -0.0015338642     1    13    10     5
 0.0007647674     1    13    10    10
 0.0000745047     1    13    10    15
 -0.0396051174     1    13    11     1
 0.0024051061     1    13    11     2
 0.0025383988     1    13    11     4
 -0.0003719836     1    13    11     6
 -0.0010073550     1    13    11     8
 0.0000417357     1    13    11    11
 -0.0020273632     1    13    12     3
 0.0005580475     1    13    12     7
 0.0001611465     1    13    12     9
 0.0012233989     1    13    12    12
 -0.3358767758     1    13    13     1
 0.0007032372     1    13    13     2
 0.0029661581     1    13    13     4
 0.0001579355     1    13    13     6
 -0.0004598138     1    13    13     8
 0.0006976196     1    13    13    11
 -0.0003417662     1    13    14    14
 -0.0008102819     1    13    15     5
 0.0000044915     1    13    15    10
 -0.0001912633     1    13    15    15
 -0.0029549703     1    14     3     5
 0.0013264942     1    14     3    10
 0.0003791099     1    14     3    15
 -0.0026367884     1    14     5     3
 0.0007789591     1    14     5     7
 0.0004133122     1    14     5     9
 0.0017698606     1    14     5    12
 -0.0005098352     1    14     7     5
 0.0002220647     1    14     7    10
 0.0000601078     1    14     7    15
 0.0000676837     1    14     9     5
 -0.0000397626     1    14     9    10
 -0.0000096609     1    14     9    15
 -0.0007849471     1    14    10     3
 0.0002195376     1    14    10     7
 0.0001116227     1    14    10     9
 0.0004908846     1    14    10    12
 -0.0003092154     1    14    12     5
 0.0001330553     1    14    12    10
 0.0000351662     1    14    12    15
 -0.3247251448     1    14    14     1
 -0.0002247968     1    14    14     2
 0.0018758956     1    14    14     4
 0.0003668017     1    14    14     6
 -0.0004076672     1    14    14     8
 0.0008602292     1    14    14    11
 0.0003417662     1    14    14    13
 -0.0018192676     1    14    15     3
 0.0005077290     1    14    15     7
 0.0002747772     1    14    15     9
 0.0011518249     1    14    15    12
 -0.0014833892     1    15     2     5
 0.0003155282     1    15     2    10
 -0.0003791099     1    15     3    14
 0.0026803354     1    15     4     5
 -0.0012866980     1    15     4    10
 0.0554300554     1    15     5     1
 -0.0053342137     1    15     5     2
 0.0011500980     1    15     5     4
 0.0013309981     1    15     5     6
 0.0002392647     1    15     5     8
 0.0022761043     1    15     5    11
 0.0009536915     1    15     5    13
 -0.0001394492     1    15     6     5
 -0.0001980836     1    15     6    10
 -0.0000601078     1    15     7    14
 0.0002213141     1    15     8     5
 -0.0000805445     1    15     8    10
 0.0000096609     1    15     9    14
 -0.0396560567     1    15    10     1
 0.0019274817     1    15    10     2
 0.0014855678     1    15    10     4
 -0.0004936835     1    15    10     6