&FCI NORB=  8,NELEC=  6,MS2=0,
 ORBSYM=1,1,1,1,1,1,1,1
 ISYM=1,
&END
 0.1369777822     1     1     2     2
 0.0154203358     1     1     2     4
 0.0101765948     1     1     2     6
 -0.0011461795     1     1     2     8
 0.1755278177     1     1     3     3
 -0.0321514714     1     1     3     5
 0.0017970896     1     1     3     7
 0.0154203358     1     1     4     2
 0.1905220594     1     1     4     4
 -0.0390392488     1     1     4     6
 -0.0028532354     1     1     4     8
 -0.0321514714     1     1     5     3
 0.1877074817     1     1     5     5
 -0.0108190823     1     1     5     7
 0.0101765948     1     1     6     2
 -0.0390392488     1     1     6     4
 0.2151804332     1     1     6     6
 0.0313381777     1     1     6     8
 0.0017970896     1     1     7     3
 -0.0108190823     1     1     7     5
 0.1878655547     1     1     7     7
 -0.0011461795     1     1     8     2
 -0.0028532354     1     1     8     4
 0.0313381777     1     1     8     6
 0.1651955014     1     1     8     8
 -0.1369777822     1     2     2     1
 0.0495238630     1     2     2     3
 -0.0012074510     1     2     2     5
 0.0038163783     1     2     2     7
 -0.0454434000     1     2     3     4
 0.0220331875     1     2     3     6
 0.0015440053     1     2     3     8
 -0.0154203358     1     2     4     1
 -0.0135053597     1     2     4     3
 -0.0500100124     1     2     4     5
 0.0069677391     1     2     4     7
 -0.0354680552     1     2     5     4
 -0.0557145818     1     2     5     6
 -0.0169334486     1     2     5     8
 -0.0101765948     1     2     6     1
 0.0164958624     1     2     6     3
 -0.0453381960     1     2     6     5
 -0.0062392147     1     2     6     7
 0.0049387345     1     2     7     4
 -0.0058670536     1     2     7     6
 0.0508467502     1     2     7     8
 0.0011461795     1     2     8     1
 -0.0016014832     1     2     8     3
 -0.0146412662     1     2     8     5
 0.0501723139     1     2     8     7
 -0.0495238630     1     3     2     2
 -0.0321470564     1     3     2     4
 0.0056152415     1     3     2     6
 0.0031175547     1     3     2     8
 -0.1755278177     1     3     3     1
 0.0319989797     1     3     3     5
 0.0033377875     1     3     3     7
 0.0135053597     1     3     4     2
 -0.0105275734     1     3     4     4
 0.0355167332     1     3     4     6
 0.0099589924     1     3     4     8
 0.0321514714     1     3     5     1
 -0.0017718799     1     3     5     5
 -0.0000512754     1     3     5     7
 -0.0164958624     1     3     6     2
 0.0153042920     1     3     6     4
 -0.0219181079     1     3     6     6
 -0.0124869377     1     3     6     8
 -0.0017970896     1     3     7     1
 0.0016074951     1     3     7     5
 -0.0163180006     1     3     7     7
 0.0016014832     1     3     8     2
 0.0081141764     1     3     8     4
 -0.0122845670     1     3     8     6
 0.0068829391     1     3     8     8
 -0.0154203358     1     4     2     1
 0.0321470564     1     4     2     3
 -0.0153806841     1     4     2     5
 0.0018227980     1     4     2     7
 0.0454434000     1     4     3     2
 0.0227294628     1     4     3     6
 0.0024946750     1     4     3     8
 -0.1905220594     1     4     4     1
 0.0105275734     1     4     4     3
 -0.0014943153     1     4     4     5
 0.0144131867     1     4     4     7
 0.0354680552     1     4     5     2
 -0.0113389812     1     4     5     6
 -0.0122702915     1     4     5     8
 0.0390392488     1     4     6     1
 -0.0153042920     1     4     6     3
 -0.0099729797     1     4     6     5
 -0.0023433260     1     4     6     7
 -0.0049387345     1     4     7     2
 0.0008984092     1     4     7     6
 0.0097389746     1     4     7     8
 0.0028532354     1     4     8     1
 -0.0081141764     1     4     8     3
 -0.0024861062     1     4     8     5
 0.0087558290     1     4     8     7
 0.0012074510     1     5     2     2
 0.0153806841     1     5     2     4
 -0.0122247522     1     5     2     6
 -0.0028072275     1     5     2     8
 0.0321514714     1     5     3     1
 -0.0319989797     1     5     3     3
 -0.0015300960     1     5     3     7
 0.0500100124     1     5     4     2
 0.0014943153     1     5     4     4
 -0.0012683168     1     5     4     6
 -0.0100435957     1     5     4     8
 -0.1877074817     1     5     5     1
 0.0017718799     1     5     5     3
 0.0141723164     1     5     5     7
 0.0453381960     1     5     6     2
 0.0099729797     1     5     6     4
 -0.0061002135     1     5     6     6
 -0.0085682439     1     5     6     8
 0.0108190823     1     5     7     1
 -0.0016074951     1     5     7     3
 -0.0056653033     1     5     7     7
 0.0146412662     1     5     8     2
 0.0024861062     1     5     8     4
 -0.0008337930     1     5     8     6
 -0.0055546781     1     5     8     8
 -0.0101765948     1     6     2     1
 -0.0056152415     1     6     2     3
 0.0122247522     1     6     2     5
 -0.0004626560     1     6     2     7
 -0.0220331875     1     6     3     2
 -0.0227294628     1     6     3     4
 -0.0005684621     1     6     3     8
 0.0390392488     1     6     4     1
 -0.0355167332     1     6     4     3
 0.0012683168     1     6     4     5
 -0.0030097140     1     6     4     7
 0.0557145818     1     6     5     2
 0.0113389812     1     6     5     4
 -0.0078987851     1     6     5     8
 -0.2151804332     1     6     6     1
 0.0219181079     1     6     6     3
 0.0061002135     1     6     6     5
 0.0155806109     1     6     6     7
 0.0058670536     1     6     7     2
 -0.0008984092     1     6     7     4
 -0.0021764705     1     6     7     8
 -0.0313381777     1     6     8     1
 0.0122845670     1     6     8     3
 0.0008337930     1     6     8     5
 0.0023886002     1     6     8     7
 -0.0038163783     1     7     2     2
 -0.0018227980     1     7     2     4
 0.0004626560     1     7     2     6
 0.0008326175     1     7     2     8
 -0.0017970896     1     7     3     1
 -0.0033377875     1     7     3     3
 0.0015300960     1     7     3     5
 -0.0069677391     1     7     4     2
 -0.0144131867     1     7     4     4
 0.0030097140     1     7     4     6
 0.0009136896     1     7     4     8
 0.0108190823     1     7     5     1
 0.0000512754     1     7     5     3
 -0.0141723164     1     7     5     5
 0.0062392147     1     7     6     2
 0.0023433260     1     7     6     4
 -0.0155806109     1     7     6     6
 -0.0045641035     1     7     6     8
 -0.1878655547     1     7     7     1
 0.0163180006     1     7     7     3
 0.0056653033     1     7     7     5
 -0.0501723139     1     7     8     2
 -0.0087558290     1     7     8     4
 -0.0023886002     1     7     8     6
 -0.0031321256     1     7     8     8
 0.0011461795     1     8     2     1
 -0.0031175547     1     8     2     3
 0.0028072275     1     8     2     5
 -0.0008326175     1     8     2     7
 -0.0015440053     1     8     3     2
 -0.0024946750     1     8     3     4
 0.0005684621     1     8     3     6
 0.0028532354     1     8     4     1
 -0.0099589924     1     8     4     3
 0.0100435957     1     8     4     5
 -0.0009136896     1     8     4     7
 0.0169334486     1     8     5     2
 0.0122702915     1     8     5     4
 0.0078987851     1     8     5     6
 -0.0313381777     1     8     6     1
 0.0124869377     1     8     6     3
 0.0085682439     1     8     6     5
 0.0045641035     1     8     6     7
 -0.0508467502     1     8     7     2
 -0.0097389746     1     8     7     4
 0.0021764705     1     8     7     6
 -0.1651955014     1     8     8     1
 -0.0068829391     1     8     8     3
 0.0055546781     1     8     8     5
 0.0031321256     1     8     8     7
 -0.1369777822     2     1     1     2
 -0.0154203358     2     1     1     4
 -0.0101765948     2     1     1     6
 0.0011461795     2     1     1     8
 0.0495238630     2     1     3     2
 -0.0135053597     2     1     3     4
 0.0164958624     2     1     3     6
 -0.0016014832     2     1     3     8
 -0.0454434000     2     1     4     3
 -0.0354680552     2     1     4     5
 0.0049387345     2     1     4     7
 -0.0012074510     2     1     5     2
 -0.0500100124     2     1     5     4
 -0.0453381960     2     1     5     6
 -0.0146412662     2     1     5     8
 0.0220331875     2     1     6     3
 -0.0557145818     2     1     6     5
 -0.0058670536     2     1     6     7
 0.0038163783     2     1     7     2
 0.0069677391     2     1     7     4
 -0.0062392147     2     1     7     6
 0.0501723139     2     1     7     8
 0.0015440053     2     1     8     3
 -0.0169334486     2     1     8     5
 0.0508467502     2     1     8     7
 0.1369777822     2     2     1     1
 -0.0495238630     2     2     1     3
 0.0012074510     2     2     1     5
 -0.0038163783     2     2     1     7
 -0.0495238630     2     2     3     1
 0.1428302440     2     2     3     3
 -0.0071946762     2     2     3     5
 0.0027947541     2     2     3     7
 0.1728823400     2     2     4     4
 -0.0083976993     2     2     4     6
 0.0067780913     2     2     4     8
 0.0012074510     2     2     5     1
 -0.0071946762     2     2     5     3
 0.1813576783     2     2     5     5
 -0.0081103813     2     2     5     7
 -0.0083976993     2     2     6     4
 0.1866791881     2     2     6     6
 0.0168697097     2     2     6     8
 -0.0038163783     2     2     7     1
 0.0027947541     2     2     7     3
 -0.0081103813     2     2     7     5
 0.1704757621     2     2     7     7
 0.0067780913     2     2     8     4
 0.0168697097     2     2     8     6
 0.1723423653     2     2     8     8
 0.0495238630     2     3     1     2
 0.0321470564     2     3     1     4
 -0.0056152415     2     3     1     6
 -0.0031175547     2     3     1     8
 -0.1428302440     2     3     3     2
 -0.0575177251     2     3     3     4
 0.0038796290     2     3     3     6
 0.0015849536     2     3     3     8
 0.0454434000     2     3     4     1
 -0.0556476638     2     3     4     5
 -0.0003771208     2     3     4     7
 0.0071946762     2     3     5     2
 -0.0301190359     2     3     5     4
 -0.0502126075     2     3     5     6
 -0.0113054053     2     3     5     8
 -0.0220331875     2     3     6     1
 -0.0327242899     2     3     6     5
 -0.0068883951     2     3     6     7
 -0.0027947541     2     3     7     2
 -0.0014384436     2     3     7     4
 -0.0062426114     2     3     7     6
 0.0485062685     2     3     7     8
 -0.0015440053     2     3     8     1
 -0.0083113185     2     3     8     5
 0.0475658837     2     3     8     7
 0.0154203358     2     4     1     1
 -0.0321470564     2     4     1     3
 0.0153806841     2     4     1     5
 -0.0018227980     2     4     1     7
 0.0135053597     2     4     3     1
 0.0575177251     2     4     3     3
 -0.0282507197     2     4     3     5
 0.0008139465     2     4     3     7
 -0.1728823400     2     4     4     2
 -0.0371090537     2     4     4     6
 0.0029578333     2     4     4     8
 0.0500100124     2     4     5     1
 0.0301190359     2     4     5     3
 0.0039818314     2     4     5     5
 -0.0126307937     2     4     5     7
 0.0083976993     2     4     6     2
 0.0206179360     2     4     6     6
 0.0162056460     2     4     6     8
 -0.0069677391     2     4     7     1
 0.0014384436     2     4     7     3
 -0.0038659769     2     4     7     5
 0.0182342956     2     4     7     7
 -0.0067780913     2     4     8     2
 0.0093969980     2     4     8     6
 0.0002980750     2     4     8     8
 -0.0012074510     2     5     1     2
 -0.0153806841     2     5     1     4
 0.0122247522     2     5     1     6
 0.0028072275     2     5     1     8
 0.0071946762     2     5     3     2
 0.0282507197     2     5     3     4
 -0.0181133060     2     5     3     6
 -0.0024996060     2     5     3     8
 0.0354680552     2     5     4     1
 0.0556476638     2     5     4     3
 -0.0088167844     2     5     4     7
 -0.1813576783     2     5     5     2
 -0.0039818314     2     5     5     4
 -0.0071890311     2     5     5     6
 0.0184693822     2     5     5     8
 0.0557145818     2     5     6     1
 0.0327242899     2     5     6     3
 -0.0118357451     2     5     6     7
 0.0081103813     2     5     7     2
 0.0038659769     2     5     7     4
 -0.0028834099     2     5     7     6
 -0.0037669069     2     5     7     8
 0.0169334486     2     5     8     1
 0.0083113185     2     5     8     3
 -0.0061274559     2     5     8     7
 0.0101765948     2     6     1     1
 0.0056152415     2     6     1     3
 -0.0122247522     2     6     1     5
 0.0004626560     2     6     1     7
 -0.0164958624     2     6     3     1
 -0.0038796290     2     6     3     3
 0.0181133060     2     6     3     5
 -0.0007014276     2     6     3     7
 0.0083976993     2     6     4     2
 0.0371090537     2     6     4     4
 0.0069683469     2     6     4     8
 0.0453381960     2     6     5     1
 0.0502126075     2     6     5     3
 0.0071890311     2     6     5     5
 -0.0089987664     2     6     5     7
 -0.1866791881     2     6     6     2
 -0.0206179360     2     6     6     4
 0.0125065330     2     6     6     8
 0.0062392147     2     6     7     1
 0.0062426114     2     6     7     3
 0.0028834099     2     6     7     5
 0.0045938506     2     6     7     7
 -0.0168697097     2     6     8     2
 -0.0093969980     2     6     8     4
 0.0074136687     2     6     8     8
 0.0038163783     2     7     1     2
 0.0018227980     2     7     1     4
 -0.0004626560     2     7     1     6
 -0.0008326175     2     7     1     8
 -0.0027947541     2     7     3     2
 -0.0008139465     2     7     3     4
 0.0007014276     2     7     3     6
 0.0010390797     2     7     3     8
 -0.0049387345     2     7     4     1
 0.0003771208     2     7     4     3
 0.0088167844     2     7     4     5
 0.0081103813     2     7     5     2
 0.0126307937     2     7     5     4
 0.0089987664     2     7     5     6
 0.0023368483     2     7     5     8
 0.0058670536     2     7     6     1
 0.0068883951     2     7     6     3
 0.0118357451     2     7     6     5
 -0.1704757621     2     7     7     2
 -0.0182342956     2     7     7     4
 -0.0045938506     2     7     7     6
 0.0000596864     2     7     7     8
 -0.0508467502     2     7     8     1
 -0.0475658837     2     7     8     3
 0.0061274559     2     7     8     5
 -0.0011461795     2     8     1     1
 0.0031175547     2     8     1     3
 -0.0028072275     2     8     1     5
 0.0008326175     2     8     1     7
 0.0016014832     2     8     3     1
 -0.0015849536     2     8     3     3
 0.0024996060     2     8     3     5
 -0.0010390797     2     8     3     7
 -0.0067780913     2     8     4     2
 -0.0029578333     2     8     4     4
 -0.0069683469     2     8     4     6
 0.0146412662     2     8     5     1
 0.0113054053     2     8     5     3
 -0.0184693822     2     8     5     5
 -0.0023368483     2     8     5     7
 -0.0168697097     2     8     6     2
 -0.0162056460     2     8     6     4
 -0.0125065330     2     8     6     6
 -0.0501723139     2     8     7     1
 -0.0485062685     2     8     7     3
 0.0037669069     2     8     7     5
 -0.0000596864     2     8     7     7
 -0.1723423653     2     8     8     2
 -0.0002980750     2     8     8     4
 -0.0074136687     2     8     8     6
 -0.1755278177     3     1     1     3
 0.0321514714     3     1     1     5
 -0.0017970896     3     1     1     7
 -0.0495238630     3     1     2     2
 0.0135053597     3     1     2     4
 -0.0164958624     3     1     2     6
 0.0016014832     3     1     2     8
 -0.0321470564     3     1     4     2
 -0.0105275734     3     1     4     4
 0.0153042920     3     1     4     6
 0.0081141764     3     1     4     8
 0.0319989797     3     1     5     3
 -0.0017718799     3     1     5     5
 0.0016074951     3     1     5     7
 0.0056152415     3     1     6     2
 0.0355167332     3     1     6     4
 -0.0219181079     3     1     6     6
 -0.0122845670     3     1     6     8
 0.0033377875     3     1     7     3
 -0.0000512754     3     1     7     5
 -0.0163180006     3     1     7     7
 0.0031175547     3     1     8     2
 0.0099589924     3     1     8     4
 -0.0124869377     3     1     8     6
 0.0068829391     3     1     8     8
 0.0454434000     3     2     1     4
 -0.0220331875     3     2     1     6
 -0.0015440053     3     2     1     8
 0.0495238630     3     2     2     1
 -0.1428302440     3     2     2     3
 0.0071946762     3     2     2     5
 -0.0027947541     3     2     2     7
 0.0321470564     3     2     4     1
 -0.0575177251     3     2     4     3
 -0.0301190359     3     2     4     5
 -0.0014384436     3     2     4     7
 -0.0556476638     3     2     5     4
 -0.0327242899     3     2     5     6
 -0.0083113185     3     2     5     8
 -0.0056152415     3     2     6     1
 0.0038796290     3     2     6     3
 -0.0502126075     3     2     6     5
 -0.0062426114     3     2     6     7
 -0.0003771208     3     2     7     4
 -0.0068883951     3     2     7     6
 0.0475658837     3     2     7     8
 -0.0031175547     3     2     8     1
 0.0015849536     3     2     8     3
 -0.0113054053     3     2     8     5
 0.0485062685     3     2     8     7
 0.1755278177     3     3     1     1
 -0.0319989797     3     3     1     5
 -0.0033377875     3     3     1     7
 0.1428302440     3     3     2     2
 0.0575177251     3     3     2     4
 -0.0038796290     3     3     2     6
 -0.0015849536     3     3     2     8
 0.0575177251     3     3     4     2
 0.1765777336     3     3     4     4
 -0.0159792881     3     3     4     6
 -0.0039600787     3     3     4     8
 -0.0319989797     3     3     5     1
 0.1730511258     3     3     5     5
 -0.0020790861     3     3     5     7
 -0.0038796290     3     3     6     2
 -0.0159792881     3     3     6     4
 0.1869372456     3     3     6     6
 0.0194098548     3     3     6     8
 -0.0033377875     3     3     7     1
 -0.0020790861     3     3     7     5
 0.1756997152     3     3     7     7
 -0.0015849536     3     3     8     2
 -0.0039600787     3     3     8     4
 0.0194098548     3     3     8     6
 0.1664507057     3     3     8     8
 -0.0454434000     3     4     1     2
 -0.0227294628     3     4     1     6
 -0.0024946750     3     4     1     8
 -0.0135053597     3     4     2     1
 -0.0575177251     3     4     2     3
 0.0282507197     3     4     2     5
 -0.0008139465     3     4     2     7
 0.0105275734     3     4     4     1
 -0.1765777336     3     4     4     3
 0.0619458783     3     4     4     5
 -0.0025938415     3     4     4     7
 0.0556476638     3     4     5     2
 0.0517088191     3     4     5     6
 -0.0008720230     3     4     5     8
 -0.0355167332     3     4     6     1
 0.0159792881     3     4     6     3
 0.0092404361     3     4     6     5
 0.0173065875     3     4     6     7
 0.0003771208     3     4     7     2
 0.0073287504     3     4     7     6
 -0.0336863105     3     4     7     8
 -0.0099589924     3     4     8     1
 0.0039600787     3     4     8     3
 -0.0004906279     3     4     8     5
 -0.0303471481     3     4     8     7
 -0.0321514714     3     5     1     1
 0.0319989797     3     5     1     3
 0.0015300960     3     5     1     7
 -0.0071946762     3     5     2     2
 -0.0282507197     3     5     2     4
 0.0181133060     3     5     2     6
 0.0024996060     3     5     2     8
 0.0301190359     3     5     4     2
 -0.0619458783     3     5     4     4
 0.0425054235     3     5     4     6
 -0.0001213105     3     5     4     8
 0.0017718799     3     5     5     1
 -0.1730511258     3     5     5     3
 0.0089736632     3     5     5     7
 0.0502126075     3     5     6     2
 -0.0092404361     3     5     6     4
 -0.0106612662     3     5     6     6
 -0.0213736719     3     5     6     8
 0.0000512754     3     5     7     1
 0.0020790861     3     5     7     3
 -0.0176606453     3     5     7     7
 0.0113054053     3     5     8     2
 0.0004906279     3     5     8     4
 -0.0075376670     3     5     8     6
 -0.0016942493     3     5     8     8
 0.0220331875     3     6     1     2
 0.0227294628     3     6     1     4
 0.0005684621     3     6     1     8
 0.0164958624     3     6     2     1
 0.0038796290     3     6     2     3
 -0.0181133060     3     6     2     5
 0.0007014276     3     6     2     7
 -0.0153042920     3     6     4     1
 0.0159792881     3     6     4     3
 -0.0425054235     3     6     4     5
 0.0098263279     3     6     4     7
 0.0327242899     3     6     5     2
 -0.0517088191     3     6     5     4
 -0.0137645664     3     6     5     8
 0.0219181079     3     6     6     1
 -0.1869372456     3     6     6     3
 0.0106612662     3     6     6     5
 -0.0011580745     3     6     6     7
 0.0068883951     3     6     7     2
 -0.0073287504     3     6     7     4
 0.0102543342     3     6     7     8
 0.0124869377     3     6     8     1
 -0.0194098548     3     6     8     3
 0.0075376670     3     6     8     5
 0.0092021941     3     6     8     7
 0.0017970896     3     7     1     1
 0.0033377875     3     7     1     3
 -0.0015300960     3     7     1     5
 0.0027947541     3     7     2     2
 0.0008139465     3     7     2     4
 -0.0007014276     3     7     2     6
 -0.0010390797     3     7     2     8
 0.0014384436     3     7     4     2
 0.0025938415     3     7     4     4
 -0.0098263279     3     7     4     6
 -0.0033931952     3     7     4     8
 -0.0016074951     3     7     5     1
 0.0020790861     3     7     5     3
 -0.0089736632     3     7     5     5
 0.0062426114     3     7     6     2
 -0.0173065875     3     7     6     4
 0.0011580745     3     7     6     6
 0.0010661759     3     7     6     8
 0.0163180006     3     7     7     1
 -0.1756997152     3     7     7     3
 0.0176606453     3     7     7     5
 -0.0485062685     3     7     8     2
 0.0303471481     3     7     8     4
 -0.0092021941     3     7     8     6
 0.0005368797     3     7     8     8
 0.0015440053     3     8     1     2
 0.0024946750     3     8     1     4
 -0.0005684621     3     8     1     6
 -0.0016014832     3     8     2     1
 0.0015849536     3     8     2     3
 -0.0024996060     3     8     2     5
 0.0010390797     3     8     2     7
 -0.0081141764     3     8     4     1
 0.0039600787     3     8     4     3
 0.0001213105     3     8     4     5
 0.0033931952     3     8     4     7
 0.0083113185     3     8     5     2
 0.0008720230     3     8     5     4
 0.0137645664     3     8     5     6
 0.0122845670     3     8     6     1
 -0.0194098548     3     8     6     3
 0.0213736719     3     8     6     5
 -0.0010661759     3     8     6     7
 -0.0475658837     3     8     7     2
 0.0336863105     3     8     7     4
 -0.0102543342     3     8     7     6
 -0.0068829391     3     8     8     1
 -0.1664507057     3     8     8     3
 0.0016942493     3     8     8     5
 -0.0005368797     3     8     8     7
 -0.0154203358     4     1     1     2
 -0.1905220594     4     1     1     4
 0.0390392488     4     1     1     6
 0.0028532354     4     1     1     8
 0.0454434000     4     1     2     3
 0.0354680552     4     1     2     5
 -0.0049387345     4     1     2     7
 0.0321470564     4     1     3     2
 0.0105275734     4     1     3     4
 -0.0153042920     4     1     3     6
 -0.0081141764     4     1     3     8
 -0.0153806841     4     1     5     2
 -0.0014943153     4     1     5     4
 -0.0099729797     4     1     5     6
 -0.0024861062     4     1     5     8
 0.0227294628     4     1     6     3
 -0.0113389812     4     1     6     5
 0.0008984092     4     1     6     7
 0.0018227980     4     1     7     2
 0.0144131867     4     1     7     4
 -0.0023433260     4     1     7     6
 0.0087558290     4     1     7     8
 0.0024946750     4     1     8     3
 -0.0122702915     4     1     8     5
 0.0097389746     4     1     8     7
 0.0154203358     4     2     1     1
 0.0135053597     4     2     1     3
 0.0500100124     4     2     1     5
 -0.0069677391     4     2     1     7
 -0.1728823400     4     2     2     4
 0.0083976993     4     2     2     6
 -0.0067780913     4     2     2     8
 -0.0321470564     4     2     3     1
 0.0575177251     4     2     3     3
 0.0301190359     4     2     3     5
 0.0014384436     4     2     3     7
 0.0153806841     4     2     5     1
 -0.0282507197     4     2     5     3
 0.0039818314     4     2     5     5
 -0.0038659769     4     2     5     7
 -0.0371090537     4     2     6     4
 0.0206179360     4     2     6     6
 0.0093969980     4     2     6     8
 -0.0018227980     4     2     7     1
 0.0008139465     4     2     7     3
 -0.0126307937     4     2     7     5
 0.0182342956     4     2     7     7
 0.0029578333     4     2     8     4
 0.0162056460     4     2     8     6
 0.0002980750     4     2     8     8
 -0.0135053597     4     3     1     2
 0.0105275734     4     3     1     4
 -0.0355167332     4     3     1     6
 -0.0099589924     4     3     1     8
 -0.0454434000     4     3     2     1
 0.0556476638     4     3     2     5
 0.0003771208     4     3     2     7
 -0.0575177251     4     3     3     2
 -0.1765777336     4     3     3     4
 0.0159792881     4     3     3     6
 0.0039600787     4     3     3     8
 0.0282507197     4     3     5     2
 0.0619458783     4     3     5     4
 0.0092404361     4     3     5     6
 -0.0004906279     4     3     5     8
 -0.0227294628     4     3     6     1
 0.0517088191     4     3     6     5
 0.0073287504     4     3     6     7
 -0.0008139465     4     3     7     2
 -0.0025938415     4     3     7     4
 0.0173065875     4     3     7     6
 -0.0303471481     4     3     7     8
 -0.0024946750     4     3     8     1
 -0.0008720230     4     3     8     5
 -0.0336863105     4     3     8     7
 0.1905220594     4     4     1     1
 -0.0105275734     4     4     1     3
 0.0014943153     4     4     1     5
 -0.0144131867     4     4     1     7
 0.1728823400     4     4     2     2
 0.0371090537     4     4     2     6
 -0.0029578333     4     4     2     8
 -0.0105275734     4     4     3     1
 0.1765777336     4     4     3     3
 -0.0619458783     4     4     3     5
 0.0025938415     4     4     3     7
 0.0014943153     4     4     5     1
 -0.0619458783     4     4     5     3
 0.1419903109     4     4     5     5
 -0.0039131689     4     4     5     7
 0.0371090537     4     4     6     2
 0.1704737911     4     4     6     6
 0.0101709312     4     4     6     8
 -0.0144131867     4     4     7     1
 0.0025938415     4     4     7     3
 -0.0039131689     4     4     7     5
 0.1747378961     4     4     7     7
 -0.0029578333     4     4     8     2
 0.0101709312     4     4     8     6
 0.1615445702     4     4     8     8
 -0.0500100124     4     5     1     2
 -0.0014943153     4     5     1     4
 0.0012683168     4     5     1     6
 0.0100435957     4     5     1     8
 -0.0354680552     4     5     2     1
 -0.0556476638     4     5     2     3
 0.0088167844     4     5     2     7
 -0.0301190359     4     5     3     2
 0.0619458783     4     5     3     4
 -0.0425054235     4     5     3     6
 0.0001213105     4     5     3     8
 -0.0039818314     4     5     5     2
 -0.1419903109     4     5     5     4
 0.0586984713     4     5     5     6
 0.0047262574     4     5     5     8
 0.0113389812     4     5     6     1
 -0.0517088191     4     5     6     3
 0.0126420566     4     5     6     7
 0.0126307937     4     5     7     2
 0.0039131689     4     5     7     4
 0.0048292105     4     5     7     6
 -0.0487500263     4     5     7     8
 0.0122702915     4     5     8     1
 0.0008720230     4     5     8     3
 -0.0465004578     4     5     8     7
 -0.0390392488     4     6     1     1
 0.0355167332     4     6     1     3
 -0.0012683168     4     6     1     5
 0.0030097140     4     6     1     7
 -0.0083976993     4     6     2     2
 -0.0371090537     4     6     2     4
 -0.0069683469     4     6     2     8
 0.0153042920     4     6     3     1
 -0.0159792881     4     6     3     3
 0.0425054235     4     6     3     5
 -0.0098263279     4     6     3     7
 0.0099729797     4     6     5     1
 -0.0092404361     4     6     5     3
 -0.0586984713     4     6     5     5
 0.0078128461     4     6     5     7
 -0.0206179360     4     6     6     2
 -0.1704737911     4     6     6     4
 -0.0142873746     4     6     6     8
 0.0023433260     4     6     7     1
 -0.0173065875     4     6     7     3
 -0.0048292105     4     6     7     5
 -0.0203742851     4     6     7     7
 -0.0162056460     4     6     8     2
 -0.0101709312     4     6     8     4
 0.0042914463     4     6     8     8
 0.0069677391     4     7     1     2
 0.0144131867     4     7     1     4
 -0.0030097140     4     7     1     6
 -0.0009136896     4     7     1     8
 0.0049387345     4     7     2     1
 -0.0003771208     4     7     2     3
 -0.0088167844     4     7     2     5
 -0.0014384436     4     7     3     2
 -0.0025938415     4     7     3     4
 0.0098263279     4     7     3     6
 0.0033931952     4     7     3     8
 0.0038659769     4     7     5     2
 0.0039131689     4     7     5     4
 -0.0078128461     4     7     5     6
 -0.0022495685     4     7     5     8
 -0.0008984092     4     7     6     1
 -0.0073287504     4     7     6     3
 -0.0126420566     4     7     6     5
 -0.0182342956     4     7     7     2
 -0.1747378961     4     7     7     4
 0.0203742851     4     7     7     6
 0.0031873689     4     7     7     8
 -0.0097389746     4     7     8     1
 0.0336863105     4     7     8     3
 0.0465004578     4     7     8     5
 -0.0028532354     4     8     1     1
 0.0099589924     4     8     1     3