&FCI NORB= 10,NELEC= 16,MS2=0,
 ORBSYM=1,1,1,1,1,1,1,1,1,1
 ISYM=1,
&END
 0.3951864367     1     1     2     2
 -0.0051396201     1     1     2     4
 0.5960694621     1     1     3     3
 0.1105731085     1     1     3     6
 0.0330640122     1     1     3     9
 -0.0051396201     1     1     4     2
 0.4826332261     1     1     4     4
 0.4846743541     1     1     5     5
 0.1105731085     1     1     6     3
 0.5630050188     1     1     6     6
 -0.0462027502     1     1     6     9
 0.4497773270     1     1     7     7
 0.5353699694     1     1     8     8
 0.0330640122     1     1     9     3
 -0.0462027502     1     1     9     6
 0.2242293057     1     1     9     9
 0.4010901327     1     1    10    10
 -0.3951864367     1     2     2     1
 -0.0042040236     1     2     2     3
 -0.0129454939     1     2     2     6
 0.0025741011     1     2     2     9
 0.1502720607     1     2     3     4
 0.0051396201     1     2     4     1
 0.1503868144     1     2     4     3
 -0.1293585236     1     2     4     6
 0.0412939542     1     2     4     9
 0.1662642320     1     2     5     7
 -0.1297026104     1     2     6     4
 0.1660557641     1     2     7     5
 0.1114352077     1     2     8    10
 0.0413522207     1     2     9     4
 0.1111799762     1     2    10     8
 0.0042040236     1     3     2     2
 -0.0001151344     1     3     2     4
 -0.5960694621     1     3     3     1
 -0.0091848927     1     3     3     6
 0.0026692190     1     3     3     9
 -0.1503868144     1     3     4     2
 -0.0052357218     1     3     4     4
 -0.0117334351     1     3     5     5
 -0.1105731085     1     3     6     1
 -0.0177474316     1     3     6     6
 0.0048948892     1     3     6     9
 -0.0086531994     1     3     7     7
 -0.0134863724     1     3     8     8
 -0.0330640122     1     3     9     1
 0.0023470664     1     3     9     6
 -0.0009294315     1     3     9     9
 -0.0068864583     1     3    10    10
 0.0051396201     1     4     2     1
 0.0001151344     1     4     2     3
 0.0003441124     1     4     2     6
 -0.0000691439     1     4     2     9
 -0.1502720607     1     4     3     2
 -0.4826332261     1     4     4     1
 0.0052357218     1     4     4     3
 0.0026632703     1     4     4     6
 0.0001216396     1     4     4     9
 -0.0059697281     1     4     5     7
 0.1297026104     1     4     6     2
 -0.0080522254     1     4     7     5
 -0.0046562615     1     4     8    10
 -0.0413522207     1     4     9     2
 -0.0055943712     1     4    10     8
 0.0002050374     1     5     2     7
 0.0020739138     1     5     4     7
 -0.4846743541     1     5     5     1
 0.0117334351     1     5     5     3
 -0.0037371722     1     5     5     6
 0.0018414789     1     5     5     9
 -0.1660557641     1     5     7     2
 0.0080522254     1     5     7     4
 0.0129454939     1     6     2     2
 -0.0003441124     1     6     2     4
 -0.1105731085     1     6     3     1
 0.0091848927     1     6     3     3
 0.0023197593     1     6     3     9
 0.1293585236     1     6     4     2
 -0.0026632703     1     6     4     4
 0.0037371722     1     6     5     5
 -0.5630050188     1     6     6     1
 0.0177474316     1     6     6     3
 0.0043439028     1     6     6     9
 0.0017807945     1     6     7     7
 0.0042580258     1     6     8     8
 0.0462027502     1     6     9     1
 -0.0023470664     1     6     9     3
 -0.0004031224     1     6     9     9
 0.0008960835     1     6    10    10
 -0.0002050374     1     7     2     5
 -0.0020739138     1     7     4     5
 -0.1662642320     1     7     5     2
 0.0059697281     1     7     5     4
 -0.4497773270     1     7     7     1
 0.0086531994     1     7     7     3
 -0.0017807945     1     7     7     6
 0.0014501451     1     7     7     9
 0.0002377195     1     8     2    10
 0.0016109072     1     8     4    10
 -0.5353699694     1     8     8     1
 0.0134863724     1     8     8     3
 -0.0042580258     1     8     8     6
 0.0037828609     1     8     8     9
 -0.1111799762     1     8    10     2
 0.0055943712     1     8    10     4
 -0.0025741011     1     9     2     2
 0.0000691439     1     9     2     4
 -0.0330640122     1     9     3     1
 -0.0026692190     1     9     3     3
 -0.0023197593     1     9     3     6
 -0.0412939542     1     9     4     2
 -0.0001216396     1     9     4     4
 -0.0018414789     1     9     5     5
 0.0462027502     1     9     6     1
 -0.0048948892     1     9     6     3
 -0.0043439028     1     9     6     6
 -0.0014501451     1     9     7     7
 -0.0037828609     1     9     8     8
 -0.2242293057     1     9     9     1
 0.0009294315     1     9     9     3
 0.0004031224     1     9     9     6
 -0.0016196972     1     9    10    10
 -0.0002377195     1    10     2     8
 -0.0016109072     1    10     4     8
 -0.1114352077     1    10     8     2
 0.0046562615     1    10     8     4
 -0.4010901327     1    10    10     1
 0.0068864583     1    10    10     3
 -0.0008960835     1    10    10     6
 0.0016196972     1    10    10     9
 -0.3951864367     2     1     1     2
 0.0051396201     2     1     1     4
 -0.0042040236     2     1     3     2
 0.1503868144     2     1     3     4
 0.1502720607     2     1     4     3
 -0.1297026104     2     1     4     6
 0.0413522207     2     1     4     9
 0.1660557641     2     1     5     7
 -0.0129454939     2     1     6     2
 -0.1293585236     2     1     6     4
 0.1662642320     2     1     7     5
 0.1111799762     2     1     8    10
 0.0025741011     2     1     9     2
 0.0412939542     2     1     9     4
 0.1114352077     2     1    10     8
 0.3951864367     2     2     1     1
 0.0042040236     2     2     1     3
 0.0129454939     2     2     1     6
 -0.0025741011     2     2     1     9
 0.0042040236     2     2     3     1
 0.5960924379     2     2     3     3
 0.1107705636     2     2     3     6
 0.0330178664     2     2     3     9
 0.4825309417     2     2     4     4
 0.4849323505     2     2     5     5
 0.0129454939     2     2     6     1
 0.1107705636     2     2     6     3
 0.5638318916     2     2     6     6
 -0.0463677945     2     2     6     9
 0.4496271950     2     2     7     7
 0.5357431935     2     2     8     8
 -0.0025741011     2     2     9     1
 0.0330178664     2     2     9     3
 -0.0463677945     2     2     9     6
 0.2242666203     2     2     9     9
 0.4009472653     2     2    10    10
 -0.0042040236     2     3     1     2
 0.0001151344     2     3     1     4
 -0.5960924379     2     3     3     2
 0.0037770539     2     3     3     4
 -0.1502720607     2     3     4     1
 0.0110055629     2     3     4     6
 -0.0025315709     2     3     4     9
 -0.0132368203     2     3     5     7
 -0.1107705636     2     3     6     2
 0.0119999809     2     3     6     4
 -0.0108823427     2     3     7     5
 -0.0114141469     2     3     8    10
 -0.0330178664     2     3     9     2
 -0.0017066104     2     3     9     4
 -0.0077282956     2     3    10     8
 -0.0051396201     2     4     1     1
 -0.0001151344     2     4     1     3
 -0.0003441124     2     4     1     6
 0.0000691439     2     4     1     9
 -0.1503868144     2     4     3     1
 -0.0037770539     2     4     3     3
 -0.0009909586     2     4     3     6
 -0.0006038308     2     4     3     9
 -0.4825309417     2     4     4     2
 -0.0097834018     2     4     5     5
 0.1293585236     2     4     6     1
 -0.0119999809     2     4     6     3
 -0.0162849661     2     4     6     6
 0.0016268096     2     4     6     9
 -0.0094267975     2     4     7     7
 -0.0116224448     2     4     8     8
 -0.0412939542     2     4     9     1
 0.0017066104     2     4     9     3
 0.0026711412     2     4     9     6
 -0.0006691031     2     4     9     9
 -0.0068740603     2     4    10    10
 -0.0002050374     2     5     1     7
 -0.0023386204     2     5     3     7
 -0.4849323505     2     5     5     2
 0.0097834018     2     5     5     4
 -0.0009751561     2     5     6     7
 -0.1662642320     2     5     7     1
 0.0108823427     2     5     7     3
 0.0033769937     2     5     7     6
 0.0004825137     2     5     7     9
 0.0003731339     2     5     9     7
 -0.0129454939     2     6     1     2
 0.0003441124     2     6     1     4
 -0.1107705636     2     6     3     2
 0.0009909586     2     6     3     4
 0.1297026104     2     6     4     1
 -0.0110055629     2     6     4     3
 -0.0013500485     2     6     4     9
 -0.0043383042     2     6     5     7
 -0.5638318916     2     6     6     2
 0.0162849661     2     6     6     4
 -0.0033769937     2     6     7     5
 -0.0049717529     2     6     8    10
 0.0463677945     2     6     9     2
 -0.0026711412     2     6     9     4
 -0.0023375043     2     6    10     8
 0.0002050374     2     7     1     5
 0.0023386204     2     7     3     5
 -0.1660557641     2     7     5     1
 0.0132368203     2     7     5     3
 0.0043383042     2     7     5     6
 0.0000792770     2     7     5     9
 0.0009751561     2     7     6     5
 -0.4496271950     2     7     7     2
 0.0094267975     2     7     7     4
 -0.0003731339     2     7     9     5
 -0.0002377195     2     8     1    10
 -0.0026484027     2     8     3    10
 -0.0020640204     2     8     6    10
 -0.5357431935     2     8     8     2
 0.0116224448     2     8     8     4
 0.0002631262     2     8     9    10
 -0.1114352077     2     8    10     1
 0.0077282956     2     8    10     3
 0.0023375043     2     8    10     6
 0.0011622937     2     8    10     9
 0.0025741011     2     9     1     2
 -0.0000691439     2     9     1     4
 -0.0330178664     2     9     3     2
 0.0006038308     2     9     3     4
 -0.0413522207     2     9     4     1
 0.0025315709     2     9     4     3
 0.0013500485     2     9     4     6
 -0.0000792770     2     9     5     7
 0.0463677945     2     9     6     2
 -0.0016268096     2     9     6     4
 -0.0004825137     2     9     7     5
 -0.0009461291     2     9     8    10
 -0.2242666203     2     9     9     2
 0.0006691031     2     9     9     4
 -0.0011622937     2     9    10     8
 0.0002377195     2    10     1     8
 0.0026484027     2    10     3     8
 0.0020640204     2    10     6     8
 -0.1111799762     2    10     8     1
 0.0114141469     2    10     8     3
 0.0049717529     2    10     8     6
 0.0009461291     2    10     8     9
 -0.0002631262     2    10     9     8
 -0.4009472653     2    10    10     2
 0.0068740603     2    10    10     4
 -0.5960694621     3     1     1     3
 -0.1105731085     3     1     1     6
 -0.0330640122     3     1     1     9
 0.0042040236     3     1     2     2
 -0.1503868144     3     1     2     4
 -0.0001151344     3     1     4     2
 -0.0052357218     3     1     4     4
 -0.0117334351     3     1     5     5
 -0.0091848927     3     1     6     3
 -0.0177474316     3     1     6     6
 0.0023470664     3     1     6     9
 -0.0086531994     3     1     7     7
 -0.0134863724     3     1     8     8
 0.0026692190     3     1     9     3
 0.0048948892     3     1     9     6
 -0.0009294315     3     1     9     9
 -0.0068864583     3     1    10    10
 -0.1502720607     3     2     1     4
 -0.0042040236     3     2     2     1
 -0.5960924379     3     2     2     3
 -0.1107705636     3     2     2     6
 -0.0330178664     3     2     2     9
 0.0001151344     3     2     4     1
 0.0037770539     3     2     4     3
 0.0119999809     3     2     4     6
 -0.0017066104     3     2     4     9
 -0.0108823427     3     2     5     7
 0.0110055629     3     2     6     4
 -0.0132368203     3     2     7     5
 -0.0077282956     3     2     8    10
 -0.0025315709     3     2     9     4
 -0.0114141469     3     2    10     8
 0.5960694621     3     3     1     1
 0.0091848927     3     3     1     6
 -0.0026692190     3     3     1     9
 0.5960924379     3     3     2     2
 -0.0037770539     3     3     2     4
 -0.0037770539     3     3     4     2
 0.3152420577     3     3     4     4
 0.3527895509     3     3     5     5
 0.0091848927     3     3     6     1
 0.3837656556     3     3     6     6
 -0.0274862894     3     3     6     9
 0.3528078852     3     3     7     7
 0.3897907393     3     3     8     8
 -0.0026692190     3     3     9     1
 -0.0274862894     3     3     9     6
 0.2098047202     3     3     9     9
 0.3289585570     3     3    10    10
 0.1502720607     3     4     1     2
 0.1503868144     3     4     2     1
 0.0037770539     3     4     2     3
 0.0009909586     3     4     2     6
 0.0006038308     3     4     2     9
 0.0052357218     3     4     4     1
 -0.3152420577     3     4     4     3
 -0.0888715934     3     4     4     6
 -0.0016137915     3     4     4     9
 0.0551119591     3     4     5     7
 -0.0110055629     3     4     6     2
 0.0326795602     3     4     7     5
 0.0427551333     3     4     8    10
 0.0025315709     3     4     9     2
 0.0286084473     3     4    10     8
 0.0023386204     3     5     2     7
 0.0224116235     3     5     4     7
 0.0117334351     3     5     5     1
 -0.3527895509     3     5     5     3
 -0.0555943405     3     5     5     6
 -0.0196751658     3     5     5     9
 0.0132368203     3     5     7     2
 -0.0326795602     3     5     7     4
 0.1105731085     3     6     1     1
 -0.0091848927     3     6     1     3
 -0.0023197593     3     6     1     9
 0.1107705636     3     6     2     2
 -0.0009909586     3     6     2     4
 -0.0119999809     3     6     4     2
 0.0888715934     3     6     4     4
 0.0555943405     3     6     5     5
 0.0177474316     3     6     6     1
 -0.3837656556     3     6     6     3
 -0.0197898499     3     6     6     9
 0.0410582895     3     6     7     7
 0.0555647440     3     6     8     8
 -0.0048948892     3     6     9     1
 0.0274862894     3     6     9     3
 0.0071331808     3     6     9     9
 0.0303131877     3     6    10    10
 -0.0023386204     3     7     2     5
 -0.0224116235     3     7     4     5
 0.0108823427     3     7     5     2
 -0.0551119591     3     7     5     4
 0.0086531994     3     7     7     1
 -0.3528078852     3     7     7     3
 -0.0410582895     3     7     7     6
 -0.0147732595     3     7     7     9
 0.0026484027     3     8     2    10
 0.0138922791     3     8     4    10
 0.0134863724     3     8     8     1
 -0.3897907393     3     8     8     3
 -0.0555647440     3     8     8     6
 -0.0150569650     3     8     8     9
 0.0114141469     3     8    10     2
 -0.0286084473     3     8    10     4
 0.0330640122     3     9     1     1
 0.0026692190     3     9     1     3
 0.0023197593     3     9     1     6
 0.0330178664     3     9     2     2
 -0.0006038308     3     9     2     4
 0.0017066104     3     9     4     2
 0.0016137915     3     9     4     4
 0.0196751658     3     9     5     5
 -0.0023470664     3     9     6     1
 0.0274862894     3     9     6     3
 0.0197898499     3     9     6     6
 0.0147732595     3     9     7     7
 0.0150569650     3     9     8     8
 0.0009294315     3     9     9     1
 -0.2098047202     3     9     9     3
 -0.0071331808     3     9     9     6
 0.0118787269     3     9    10    10
 -0.0026484027     3    10     2     8
 -0.0138922791     3    10     4     8
 0.0077282956     3    10     8     2
 -0.0427551333     3    10     8     4
 0.0068864583     3    10    10     1
 -0.3289585570     3    10    10     3
 -0.0303131877     3    10    10     6
 -0.0118787269     3    10    10     9
 0.0051396201     4     1     1     2
 -0.4826332261     4     1     1     4
 -0.1502720607     4     1     2     3
 0.1297026104     4     1     2     6
 -0.0413522207     4     1     2     9
 0.0001151344     4     1     3     2
 0.0052357218     4     1     3     4
 -0.0080522254     4     1     5     7
 0.0003441124     4     1     6     2
 0.0026632703     4     1     6     4
 -0.0059697281     4     1     7     5
 -0.0055943712     4     1     8    10
 -0.0000691439     4     1     9     2
 0.0001216396     4     1     9     4
 -0.0046562615     4     1    10     8
 -0.0051396201     4     2     1     1
 -0.1503868144     4     2     1     3
 0.1293585236     4     2     1     6
 -0.0412939542     4     2     1     9
 -0.4825309417     4     2     2     4
 -0.0001151344     4     2     3     1
 -0.0037770539     4     2     3     3
 -0.0119999809     4     2     3     6
 0.0017066104     4     2     3     9
 -0.0097834018     4     2     5     5
 -0.0003441124     4     2     6     1
 -0.0009909586     4     2     6     3
 -0.0162849661     4     2     6     6
 0.0026711412     4     2     6     9
 -0.0094267975     4     2     7     7
 -0.0116224448     4     2     8     8
 0.0000691439     4     2     9     1
 -0.0006038308     4     2     9     3
 0.0016268096     4     2     9     6
 -0.0006691031     4     2     9     9
 -0.0068740603     4     2    10    10
 0.1503868144     4     3     1     2
 0.0052357218     4     3     1     4
 0.1502720607     4     3     2     1
 -0.0110055629     4     3     2     6
 0.0025315709     4     3     2     9
 0.0037770539     4     3     3     2
 -0.3152420577     4     3     3     4
 0.0326795602     4     3     5     7
 0.0009909586     4     3     6     2
 -0.0888715934     4     3     6     4
 0.0551119591     4     3     7     5
 0.0286084473     4     3     8    10
 0.0006038308     4     3     9     2
 -0.0016137915     4     3     9     4
 0.0427551333     4     3    10     8
 0.4826332261     4     4     1     1
 -0.0052357218     4     4     1     3
 -0.0026632703     4     4     1     6
 -0.0001216396     4     4     1     9
 0.4825309417     4     4     2     2
 -0.0052357218     4     4     3     1
 0.3152420577     4     4     3     3
 0.0888715934     4     4     3     6
 0.0016137915     4     4     3     9
 0.3252479668     4     4     5     5
 -0.0026632703     4     4     6     1
 0.0888715934     4     4     6     3
 0.2984909931     4     4     6     6
 -0.0103554704     4     4     6     9
 0.2962831025     4     4     7     7
 0.3487769216     4     4     8     8
 -0.0001216396     4     4     9     1
 0.0016137915     4     4     9     3
 -0.0103554704     4     4     9     6
 0.2020655007     4     4     9     9
 0.2951209444     4     4    10    10
 -0.0020739138     4     5     1     7
 -0.0224116235     4     5     3     7
 0.0097834018     4     5     5     2
 -0.3252479668     4     5     5     4
 -0.0006135514     4     5     6     7
 0.0059697281     4     5     7     1
 -0.0551119591     4     5     7     3
 0.0617276343     4     5     7     6
 -0.0181007320     4     5     7     9
 0.0044506802     4     5     9     7
 -0.1293585236     4     6     1     2
 0.0026632703     4     6     1     4
 -0.1297026104     4     6     2     1
 0.0110055629     4     6     2     3
 0.0013500485     4     6     2     9
 0.0119999809     4     6     3     2
 -0.0888715934     4     6     3     4
 -0.0622717289     4     6     5     7
 0.0162849661     4     6     6     2
 -0.2984909931     4     6     6     4
 -0.0617276343     4     6     7     5
 -0.0539304050     4     6     8    10
 -0.0016268096     4     6     9     2
 0.0103554704     4     6     9     4
 -0.0461343455     4     6    10     8
 0.0020739138     4     7     1     5
 0.0224116235     4     7     3     5
 0.0080522254     4     7     5     1
 -0.0326795602     4     7     5     3
 0.0622717289     4     7     5     6
 -0.0230807690     4     7     5     9
 0.0006135514     4     7     6     5
 0.0094267975     4     7     7     2
 -0.2962831025     4     7     7     4
 -0.0044506802     4     7     9     5
 -0.0016109072     4     8     1    10
 -0.0138922791     4     8     3    10
 -0.0062791419     4     8     6    10
 0.0116224448     4     8     8     2
 -0.3487769216     4     8     8     4
 0.0003111223     4     8     9    10
 0.0046562615     4     8    10     1
 -0.0427551333     4     8    10     3
 0.0461343455     4     8    10     6
 -0.0132049361     4     8    10     9
 0.0412939542     4     9     1     2
 0.0001216396     4     9     1     4
 0.0413522207     4     9     2     1
 -0.0025315709     4     9     2     3
 -0.0013500485     4     9     2     6
 -0.0017066104     4     9     3     2
 -0.0016137915     4     9     3     4
 0.0230807690     4     9     5     7
 -0.0026711412     4     9     6     2
 0.0103554704     4     9     6     4
 0.0181007320     4     9     7     5
 0.0118645985     4     9     8    10
 0.0006691031     4     9     9     2
 -0.2020655007     4     9     9     4
 0.0132049361     4     9    10     8
 -0.0000000003     4     9    10    10
 0.0016109072     4    10     1     8
 0.0138922791     4    10     3     8
 0.0062791419     4    10     6     8
 0.0055943712     4    10     8     1
 -0.0286084473     4    10     8     3
 0.0539304050     4    10     8     6
 -0.0118645985     4    10     8     9
 -0.0003111223     4    10     9     8
 0.0068740603     4    10    10     2
 -0.2951209444     4    10    10     4
 0.0000000003     4    10    10     9
 -0.4846743541     5     1     1     5
 -0.1660557641     5     1     2     7
 0.0117334351     5     1     3     5
 0.0080522254     5     1     4     7
 -0.0037371722     5     1     6     5
 0.0002050374     5     1     7     2
 0.0020739138     5     1     7     4
 0.0018414789     5     1     9     5
 -0.1662642320     5     2     1     7
 -0.4849323505     5     2     2     5
 0.0108823427     5     2     3     7
 0.0097834018     5     2     4     5
 0.0033769937     5     2     6     7
 -0.0002050374     5     2     7     1
 -0.0023386204     5     2     7     3
 -0.0009751561     5     2     7     6
 0.0003731339     5     2     7     9
 0.0004825137     5     2     9     7
 0.0117334351     5     3     1     5
 0.0132368203     5     3     2     7
 -0.3527895509     5     3     3     5
 -0.0326795602     5     3     4     7
 -0.0555943405     5     3     6     5
 0.0023386204     5     3     7     2
 0.0224116235     5     3     7     4
 -0.0196751658     5     3     9     5
 0.0059697281     5     4     1     7
 0.0097834018     5     4     2     5
 -0.0551119591     5     4     3     7
 -0.3252479668     5     4     4     5
 0.0617276343     5     4     6     7
 -0.0020739138     5     4     7     1
 -0.0224116235     5     4     7     3
 -0.0006135514     5     4     7     6
 0.0044506802     5     4     7     9
 -0.0181007320     5     4     9     7
 0.4846743541     5     5     1     1
 -0.0117334351     5     5     1     3
 0.0037371722     5     5     1     6
 -0.0018414789     5     5     1     9
 0.4849323505     5     5     2     2
 -0.0097834018     5     5     2     4
 -0.0117334351     5     5     3     1
 0.3527895509     5     5     3     3
 0.0555943405     5     5     3     6
 0.0196751658     5     5     3     9
 -0.0097834018     5     5     4     2
 0.3252479668     5     5     4     4
 0.0037371722     5     5     6     1
 0.0555943405     5     5     6     3
 0.3685744767     5     5     6     6
 -0.0258526784     5     5     6     9
 0.2502745835     5     5     7     7
 0.3656409511     5     5     8     8
 -0.0018414789     5     5     9     1
 0.0196751658     5     5     9     3
 -0.0258526784     5     5     9     6
 0.2081333953     5     5     9     9
 0.3076861638     5     5    10    10
 -0.0037371722     5     6     1     5
 0.0043383042     5     6     2     7
 -0.0555943405     5     6     3     5
 0.0622717289     5     6     4     7
 -0.3685744767     5     6     6     5
 0.0009751561     5     6     7     2
 0.0006135514     5     6     7     4
 0.0258526784     5     6     9     5
 0.1662642320     5     7     1     2
 -0.0059697281     5     7     1     4
 0.1660557641     5     7     2     1
 -0.0132368203     5     7     2     3
 -0.0043383042     5     7     2     6
 -0.0000792770     5     7     2     9
 -0.0108823427     5     7     3     2
 0.0551119591     5     7     3     4
 -0.0080522254     5     7     4     1
 0.0326795602     5     7     4     3
 -0.0622717289     5     7     4     6
 0.0230807690     5     7     4     9
 -0.0033769937     5     7     6     2
 -0.0617276343     5     7     6     4
 -0.2502745835     5     7     7     5
 0.0600746627     5     7     8    10
 -0.0004825137     5     7     9     2
 0.0181007320     5     7     9     4
 0.0572636647     5     7    10     8
 0.0016680222     5     8     7    10
 -0.3656409511     5     8     8     5
 -0.0572636647     5     8    10     7
 0.0018414789     5     9     1     5
 0.0000792770     5     9     2     7
 -0.0196751658     5     9     3     5
 -0.0230807690     5     9     4     7
 0.0258526784     5     9     6     5
 -0.0003731339     5     9     7     2
 -0.0044506802     5     9     7     4
 -0.2081333953     5     9     9     5
 -0.0016680222     5    10     7     8
 -0.0600746627     5    10     8     7
 -0.3076861638     5    10    10     5
 -0.1105731085     6     1     1     3
 -0.5630050188     6     1     1     6
 0.0462027502     6     1     1     9
 0.0129454939     6     1     2     2
 0.1293585236     6     1     2     4
 0.0091848927     6     1     3     3
 0.0177474316     6     1     3     6
 -0.0023470664     6     1     3     9
 -0.0003441124     6     1     4     2
 -0.0026632703     6     1     4     4
 0.0037371722     6     1     5     5
 0.0017807945     6     1     7     7
 0.0042580258     6     1     8     8
 0.0023197593     6     1     9     3
 0.0043439028     6     1     9     6
 -0.0004031224     6     1     9     9
 0.0008960835     6     1    10    10
 0.1297026104     6     2     1     4
 -0.0129454939     6     2     2     1
 -0.1107705636     6     2     2     3
 -0.5638318916     6     2     2     6
 0.0463677945     6     2     2     9
 -0.0110055629     6     2     3     4
 0.0003441124     6     2     4     1
 0.0009909586     6     2     4     3
 0.0162849661     6     2     4     6
 -0.0026711412     6     2     4     9
 -0.0033769937     6     2     5     7
 -0.0043383042     6     2     7     5
 -0.0023375043     6     2     8    10
 -0.0013500485     6     2     9     4
 -0.0049717529     6     2    10     8
 0.1105731085     6     3     1     1
 0.0177474316     6     3     1     6
 -0.0048948892     6     3     1     9
 0.1107705636     6     3     2     2
 -0.0119999809     6     3     2     4
 -0.0091848927     6     3     3     1
 -0.3837656556     6     3     3     6
 0.0274862894     6     3     3     9
 -0.0009909586     6     3     4     2
 0.0888715934     6     3     4     4
 0.0555943405     6     3     5     5
 0.0410582895     6     3     7     7
 0.0555647440     6     3     8     8
 -0.0023197593     6     3     9     1
 -0.0197898499     6     3     9     6
 0.0071331808     6     3     9     9
 0.0303131877     6     3    10    10
 -0.1297026104     6     4     1     2
 -0.1293585236     6     4     2     1
 0.0119999809     6     4     2     3
 0.0162849661     6     4     2     6
 -0.0016268096     6     4     2     9
 0.0110055629     6     4     3     2
 0.0026632703     6     4     4     1
 -0.0888715934     6     4     4     3
 -0.2984909931     6     4     4     6
 0.0103554704     6     4     4     9
 -0.0617276343     6     4     5     7
 -0.0622717289     6     4     7     5
 -0.0461343455     6     4     8    10
 0.0013500485     6     4     9     2
 -0.0539304050     6     4    10     8
 0.0009751561     6     5     2     7
 0.0006135514     6     5     4     7
 -0.0037371722     6     5     5     1
 -0.0555943405     6     5     5     3
 -0.3685744767     6     5     5     6
 0.0258526784     6     5     5     9
 0.0043383042     6     5     7     2
 0.0622717289     6     5     7     4
 0.5630050188     6     6     1     1
 -0.0177474316     6     6     1     3
 -0.0043439028     6     6     1     9
 0.5638318916     6     6     2     2
 -0.0162849661     6     6     2     4
 -0.0177474316     6     6     3     1
 0.3837656556     6     6     3     3
 0.0197898499     6     6     3     9
 -0.0162849661     6     6     4     2
 0.2984909931     6     6     4     4
 0.3685744767     6     6     5     5
 0.3452821110     6     6     7     7
 0.3941921731     6     6     8     8
 -0.0043439028     6     6     9     1
 0.0197898499     6     6     9     3
 0.2041065747     6     6     9     9
 0.3257299817     6     6    10    10
 -0.0009751561     6     7     2     5
 -0.0006135514     6     7     4     5
 0.0033769937     6     7     5     2
 0.0617276343     6     7     5     4
 -0.0017807945     6     7     7     1
 -0.0410582895     6     7     7     3
 -0.3452821110     6     7     7     6
 0.0242133323     6     7     7     9
 0.0020640204     6     8     2    10
 0.0062791419     6     8     4    10
 -0.0042580258     6     8     8     1
 -0.0555647440     6     8     8     3
 -0.3941921731     6     8     8     6
 0.0251180557     6     8     8     9
 0.0049717529     6     8    10     2
 0.0539304050     6     8    10     4
 -0.0462027502     6     9     1     1
 0.0048948892     6     9     1     3
 0.0043439028     6     9     1     6
 -0.0463677945     6     9     2     2
 0.0016268096     6     9     2     4
 0.0023470664     6     9     3     1
 -0.0274862894     6     9     3     3
 -0.0197898499     6     9     3     6
 0.0026711412     6     9     4     2
 -0.0103554704     6     9     4     4
 -0.0258526784     6     9     5     5
 -0.0242133323     6     9     7     7
 -0.0251180557     6     9     8     8
 0.0004031224     6     9     9     1
 -0.0071331808     6     9     9     3
 -0.2041065747     6     9     9     6
 -0.0198188761     6     9    10    10
 -0.0020640204     6    10     2     8
 -0.0062791419     6    10     4     8
 0.0023375043     6    10     8     2
 0.0461343455     6    10     8     4
 -0.0008960835     6    10    10     1
 -0.0303131877     6    10    10     3
 -0.3257299817     6    10    10     6
 0.0198188761     6    10    10     9
 -0.4497773270     7     1     1     7