&FCI NORB= 11,NELEC= 10,MS2=0,
 ORBSYM=1,1,1,1,1,1,1,1,1,1,1
 ISYM=1,
&END
 0.9971484777     1     1     2     2
 -0.0406440459     1     1     2     3
 0.0680724400     1     1     2     4
 -0.1014552019     1     1     2     6
 0.0747042397     1     1     2     7
 0.0300027541     1     1     2     8
 0.0632340247     1     1     2     9
 0.0296410795     1     1     2    10
 -0.0406440459     1     1     3     2
 0.8786775666     1     1     3     3
 -0.0772215882     1     1     3     4
 0.0784761023     1     1     3     6
 0.1281115773     1     1     3     7
 -0.0393650751     1     1     3     8
 -0.0002258172     1     1     3     9
 0.1875082773     1     1     3    10
 0.0680724400     1     1     4     2
 -0.0772215882     1     1     4     3
 0.8189689916     1     1     4     4
 0.2087230783     1     1     4     6
 0.0522669488     1     1     4     7
 -0.0883229762     1     1     4     8
 0.0445342895     1     1     4     9
 -0.1463719350     1     1     4    10
 1.0077496107     1     1     5     5
 0.2147982544     1     1     5    11
 -0.1014552019     1     1     6     2
 0.0784761023     1     1     6     3
 0.2087230783     1     1     6     4
 0.4513490720     1     1     6     6
 0.0343545017     1     1     6     7
 -0.1415370366     1     1     6     8
 -0.0044670045     1     1     6     9
 -0.0532425854     1     1     6    10
 0.0747042397     1     1     7     2
 0.1281115773     1     1     7     3
 0.0522669488     1     1     7     4
 0.0343545017     1     1     7     6
 0.3125310780     1     1     7     7
 -0.0502270333     1     1     7     8
 0.0480592482     1     1     7     9
 0.0891624970     1     1     7    10
 0.0300027541     1     1     8     2
 -0.0393650751     1     1     8     3
 -0.0883229762     1     1     8     4
 -0.1415370366     1     1     8     6
 -0.0502270333     1     1     8     7
 0.3137770330     1     1     8     8
 -0.0120062819     1     1     8     9
 0.0150353552     1     1     8    10
 0.0632340247     1     1     9     2
 -0.0002258172     1     1     9     3
 0.0445342895     1     1     9     4
 -0.0044670045     1     1     9     6
 0.0480592482     1     1     9     7
 -0.0120062819     1     1     9     8
 0.3600342012     1     1     9     9
 0.0189148288     1     1     9    10
 0.0296410795     1     1    10     2
 0.1875082773     1     1    10     3
 -0.1463719350     1     1    10     4
 -0.0532425854     1     1    10     6
 0.0891624970     1     1    10     7
 0.0150353552     1     1    10     8
 0.0189148288     1     1    10     9
 0.4917869572     1     1    10    10
 0.2147982544     1     1    11     5
 0.4312729669     1     1    11    11
 -0.9971484777     1     2     2     1
 -0.0055623280     1     2     2     3
 0.0019911873     1     2     2     4
 -0.0003733637     1     2     2     6
 -0.0017408662     1     2     2     7
 0.0003192542     1     2     2     8
 -0.0000950863     1     2     2     9
 -0.0043806925     1     2     2    10
 0.0406440459     1     2     3     1
 -0.0323692684     1     2     3     3
 0.0045713071     1     2     3     4
 -0.0042323707     1     2     3     6
 -0.0101720887     1     2     3     7
 0.0033316230     1     2     3     8
 -0.0024066487     1     2     3     9
 -0.0174103564     1     2     3    10
 -0.0680724400     1     2     4     1
 0.0040067060     1     2     4     3
 -0.0293408963     1     2     4     4
 -0.0146988268     1     2     4     6
 -0.0026421486     1     2     4     7
 0.0078420458     1     2     4     8
 -0.0025423671     1     2     4     9
 0.0120369611     1     2     4    10
 -0.0426476928     1     2     5     5
 -0.0182772795     1     2     5    11
 0.1014552019     1     2     6     1
 -0.0028519299     1     2     6     3
 -0.0125281207     1     2     6     4
 -0.0097985488     1     2     6     6
 -0.0034565957     1     2     6     7
 0.0053374416     1     2     6     8
 -0.0017077884     1     2     6     9
 0.0038075484     1     2     6    10
 -0.0747042397     1     2     7     1
 -0.0083082471     1     2     7     3
 -0.0019181307     1     2     7     4
 -0.0035924045     1     2     7     6
 -0.0037715225     1     2     7     7
 0.0022503008     1     2     7     8
 -0.0011775108     1     2     7     9
 -0.0042556978     1     2     7    10
 -0.0300027541     1     2     8     1
 0.0022912093     1     2     8     3
 0.0063714965     1     2     8     4
 0.0051179924     1     2     8     6
 0.0020825570     1     2     8     7
 -0.0029461542     1     2     8     8
 0.0010990539     1     2     8     9
 -0.0015236788     1     2     8    10
 -0.0632340247     1     2     9     1
 -0.0018134091     1     2     9     3
 -0.0017600666     1     2     9     4
 -0.0014644158     1     2     9     6
 -0.0010870399     1     2     9     7
 0.0010097384     1     2     9     8
 -0.0005490629     1     2     9     9
 0.0000885523     1     2     9    10
 -0.0296410795     1     2    10     1
 -0.0126895178     1     2    10     3
 0.0093428060     1     2    10     4
 0.0029071113     1     2    10     6
 -0.0036093770     1     2    10     7
 -0.0011970197     1     2    10     8
 0.0002704927     1     2    10     9
 -0.0122016937     1     2    10    10
 -0.0136609593     1     2    11     5
 -0.0079234190     1     2    11    11
 0.0406440459     1     3     2     1
 0.0055623280     1     3     2     2
 0.0005655776     1     3     2     4
 -0.0011644096     1     3     2     6
 -0.0011946957     1     3     2     7
 0.0008633944     1     3     2     8
 -0.0004372463     1     3     2     9
 -0.0036851279     1     3     2    10
 -0.8786775666     1     3     3     1
 0.0323692684     1     3     3     2
 0.0045780621     1     3     3     4
 -0.0037618768     1     3     3     6
 0.0037851741     1     3     3     7
 0.0010835667     1     3     3     8
 0.0003784486     1     3     3     9
 0.0001328702     1     3     3    10
 0.0772215882     1     3     4     1
 -0.0040067060     1     3     4     2
 0.0060318070     1     3     4     4
 0.0054248736     1     3     4     6
 0.0009675641     1     3     4     7
 -0.0038430275     1     3     4     8
 0.0000977074     1     3     4     9
 -0.0019753256     1     3     4    10
 0.0099984290     1     3     5     5
 0.0048680620     1     3     5    11
 -0.0784761023     1     3     6     1
 0.0028519299     1     3     6     2
 0.0035896167     1     3     6     4
 0.0008685898     1     3     6     6
 0.0000201036     1     3     6     7
 -0.0010356230     1     3     6     8
 0.0007687829     1     3     6     9
 -0.0016935457     1     3     6    10
 -0.1281115773     1     3     7     1
 0.0083082471     1     3     7     2
 0.0020699367     1     3     7     4
 -0.0018579642     1     3     7     6
 0.0035872177     1     3     7     7
 0.0002649149     1     3     7     8
 0.0011893037     1     3     7     9
 0.0018951721     1     3     7    10
 0.0393650751     1     3     8     1
 -0.0022912093     1     3     8     2
 -0.0019809803     1     3     8     4
 -0.0001142874     1     3     8     6
 -0.0004194454     1     3     8     7
 -0.0006970440     1     3     8     8
 0.0001980967     1     3     8     9
 -0.0002195306     1     3     8    10
 0.0002258172     1     3     9     1
 0.0018134091     1     3     9     2
 0.0004105708     1     3     9     4
 0.0005676496     1     3     9     6
 0.0015094299     1     3     9     7
 0.0001408247     1     3     9     8
 0.0005190561     1     3     9     9
 0.0037656875     1     3     9    10
 -0.1875082773     1     3    10     1
 0.0126895178     1     3    10     2
 0.0002667365     1     3    10     4
 -0.0045591966     1     3    10     6
 0.0036105024     1     3    10     7
 0.0012693634     1     3    10     8
 0.0037672988     1     3    10     9
 0.0037424080     1     3    10    10
 0.0030438922     1     3    11     5
 0.0004202471     1     3    11    11
 -0.0680724400     1     4     2     1
 -0.0019911873     1     4     2     2
 -0.0005655776     1     4     2     3
 -0.0011849483     1     4     2     6
 -0.0005987252     1     4     2     7
 0.0009898915     1     4     2     8
 -0.0006368206     1     4     2     9
 0.0018957508     1     4     2    10
 0.0772215882     1     4     3     1
 -0.0045713071     1     4     3     2
 -0.0045780621     1     4     3     3
 0.0016592736     1     4     3     6
 -0.0012226265     1     4     3     7
 -0.0017512758     1     4     3     8
 -0.0002841294     1     4     3     9
 -0.0022820476     1     4     3    10
 -0.8189689916     1     4     4     1
 0.0293408963     1     4     4     2
 -0.0060318070     1     4     4     3
 -0.0054490730     1     4     4     6
 0.0029721085     1     4     4     7
 0.0011278522     1     4     4     8
 0.0048846951     1     4     4     9
 0.0021809592     1     4     4    10
 -0.0075438980     1     4     5     5
 -0.0022037100     1     4     5    11
 -0.2087230783     1     4     6     1
 0.0125281207     1     4     6     2
 -0.0035896167     1     4     6     3
 -0.0064009113     1     4     6     6
 0.0003277608     1     4     6     7
 0.0024325570     1     4     6     8
 0.0019723483     1     4     6     9
 0.0016128134     1     4     6    10
 -0.0522669488     1     4     7     1
 0.0019181307     1     4     7     2
 -0.0020699367     1     4     7     3
 -0.0012717121     1     4     7     6
 -0.0007964541     1     4     7     7
 0.0006066776     1     4     7     8
 0.0004112381     1     4     7     9
 -0.0015256723     1     4     7    10
 0.0883229762     1     4     8     1
 -0.0063714965     1     4     8     2
 0.0019809803     1     4     8     3
 0.0035872770     1     4     8     6
 0.0003075378     1     4     8     7
 -0.0032641725     1     4     8     8
 -0.0014060200     1     4     8     9
 0.0000541460     1     4     8    10
 -0.0445342895     1     4     9     1
 0.0017600666     1     4     9     2
 -0.0004105708     1     4     9     3
 -0.0009692390     1     4     9     6
 0.0001953699     1     4     9     7
 -0.0000700484     1     4     9     8
 -0.0008553716     1     4     9     9
 0.0002411567     1     4     9    10
 0.1463719350     1     4    10     1
 -0.0093428060     1     4    10     2
 -0.0002667365     1     4    10     3
 0.0033783156     1     4    10     6
 -0.0028498275     1     4    10     7
 -0.0007035907     1     4    10     8
 -0.0019747814     1     4    10     9
 -0.0016169760     1     4    10    10
 -0.0030812376     1     4    11     5
 -0.0037138499     1     4    11    11
 -0.0035196627     1     5     2    11
 0.0016955012     1     5     3    11
 0.0011093902     1     5     4    11
 -1.0077496107     1     5     5     1
 0.0426476928     1     5     5     2
 -0.0099984290     1     5     5     3
 0.0075438980     1     5     5     4
 -0.0079769899     1     5     5     6
 0.0038474478     1     5     5     7
 0.0036344967     1     5     5     8
 0.0071631724     1     5     5     9
 -0.0005033698     1     5     5    10
 -0.0006880996     1     5     6    11
 0.0009835769     1     5     7    11
 -0.0009023914     1     5     8    11
 -0.0005339985     1     5     9    11
 -0.0003000463     1     5    10    11
 -0.2147982544     1     5    11     1
 0.0136609593     1     5    11     2
 -0.0030438922     1     5    11     3
 0.0030812376     1     5    11     4
 -0.0049431553     1     5    11     6
 0.0022719901     1     5    11     7
 0.0011468520     1     5    11     8
 0.0024610082     1     5    11     9
 -0.0003835211     1     5    11    10
 0.1014552019     1     6     2     1
 0.0003733637     1     6     2     2
 0.0011644096     1     6     2     3
 0.0011849483     1     6     2     4
 0.0001475604     1     6     2     7
 0.0002050235     1     6     2     8
 -0.0002213771     1     6     2     9
 0.0008819295     1     6     2    10
 -0.0784761023     1     6     3     1
 0.0042323707     1     6     3     2
 0.0037618768     1     6     3     3
 -0.0016592736     1     6     3     4
 0.0018712817     1     6     3     7
 -0.0009301240     1     6     3     8
 0.0002106615     1     6     3     9
 0.0028077048     1     6     3    10
 -0.2087230783     1     6     4     1
 0.0146988268     1     6     4     2
 -0.0054248736     1     6     4     3
 0.0054490730     1     6     4     4
 0.0016238127     1     6     4     7
 -0.0011930072     1     6     4     8
 0.0029700774     1     6     4     9
 -0.0017707292     1     6     4    10
 0.0079769899     1     6     5     5
 0.0042347595     1     6     5    11
 -0.4513490720     1     6     6     1
 0.0097985488     1     6     6     2
 -0.0008685898     1     6     6     3
 0.0064009113     1     6     6     4
 0.0016945122     1     6     6     7
 -0.0007547425     1     6     6     8
 0.0020931384     1     6     6     9
 -0.0007158812     1     6     6    10
 -0.0343545017     1     6     7     1
 0.0035924045     1     6     7     2
 0.0018579642     1     6     7     3
 0.0012717121     1     6     7     4
 0.0016213593     1     6     7     7
 -0.0003089541     1     6     7     8
 0.0009013620     1     6     7     9
 0.0009664895     1     6     7    10
 0.1415370366     1     6     8     1
 -0.0051179924     1     6     8     2
 0.0001142874     1     6     8     3
 -0.0035872770     1     6     8     4
 -0.0008558594     1     6     8     7
 -0.0008356605     1     6     8     8
 -0.0012435986     1     6     8     9
 0.0005461163     1     6     8    10
 0.0044670045     1     6     9     1
 0.0014644158     1     6     9     2
 -0.0005676496     1     6     9     3
 0.0009692390     1     6     9     4
 0.0004576313     1     6     9     7
 -0.0002516599     1     6     9     8
 -0.0003078898     1     6     9     9
 0.0003751797     1     6     9    10
 0.0532425854     1     6    10     1
 -0.0029071113     1     6    10     2
 0.0045591966     1     6    10     3
 -0.0033783156     1     6    10     4
 0.0003435476     1     6    10     7
 0.0002461566     1     6    10     8
 -0.0003578261     1     6    10     9
 0.0037534711     1     6    10    10
 0.0049431553     1     6    11     5
 0.0009580067     1     6    11    11
 -0.0747042397     1     7     2     1
 0.0017408662     1     7     2     2
 0.0011946957     1     7     2     3
 0.0005987252     1     7     2     4
 -0.0001475604     1     7     2     6
 0.0001584539     1     7     2     8
 -0.0000792835     1     7     2     9
 -0.0006379104     1     7     2    10
 -0.1281115773     1     7     3     1
 0.0101720887     1     7     3     2
 -0.0037851741     1     7     3     3
 0.0012226265     1     7     3     4
 -0.0018712817     1     7     3     6
 0.0006805993     1     7     3     8
 -0.0003101593     1     7     3     9
 -0.0017450473     1     7     3    10
 -0.0522669488     1     7     4     1
 0.0026421486     1     7     4     2
 -0.0009675641     1     7     4     3
 -0.0029721085     1     7     4     4
 -0.0016238127     1     7     4     6
 0.0003123009     1     7     4     8
 0.0002490367     1     7     4     9
 0.0012983082     1     7     4    10
 -0.0038474478     1     7     5     5
 -0.0012752033     1     7     5    11
 -0.0343545017     1     7     6     1
 0.0034565957     1     7     6     2
 -0.0000201036     1     7     6     3
 -0.0003277608     1     7     6     4
 -0.0016945122     1     7     6     6
 0.0005471771     1     7     6     8
 0.0004456144     1     7     6     9
 0.0006238516     1     7     6    10
 -0.3125310780     1     7     7     1
 0.0037715225     1     7     7     2
 -0.0035872177     1     7     7     3
 0.0007964541     1     7     7     4
 -0.0016213593     1     7     7     6
 0.0007004551     1     7     7     8
 0.0002327795     1     7     7     9
 -0.0011993662     1     7     7    10
 0.0502270333     1     7     8     1
 -0.0020825570     1     7     8     2
 0.0004194454     1     7     8     3
 -0.0003075378     1     7     8     4
 0.0008558594     1     7     8     6
 -0.0009100808     1     7     8     8
 -0.0000720964     1     7     8     9
 -0.0002323163     1     7     8    10
 -0.0480592482     1     7     9     1
 0.0010870399     1     7     9     2
 -0.0015094299     1     7     9     3
 -0.0001953699     1     7     9     4
 -0.0004576313     1     7     9     6
 0.0003739201     1     7     9     8
 -0.0000749937     1     7     9     9
 0.0008075058     1     7     9    10
 -0.0891624970     1     7    10     1
 0.0036093770     1     7    10     2
 -0.0036105024     1     7    10     3
 0.0028498275     1     7    10     4
 -0.0003435476     1     7    10     6
 0.0000209929     1     7    10     8
 0.0011016056     1     7    10     9
 -0.0018717343     1     7    10    10
 -0.0022719901     1     7    11     5
 -0.0018424778     1     7    11    11
 -0.0300027541     1     8     2     1
 -0.0003192542     1     8     2     2
 -0.0008633944     1     8     2     3
 -0.0009898915     1     8     2     4
 -0.0002050235     1     8     2     6
 -0.0001584539     1     8     2     7
 0.0000861589     1     8     2     9
 -0.0003212486     1     8     2    10
 0.0393650751     1     8     3     1
 -0.0033316230     1     8     3     2
 -0.0010835667     1     8     3     3
 0.0017512758     1     8     3     4
 0.0009301240     1     8     3     6
 -0.0006805993     1     8     3     7
 0.0000376049     1     8     3     9
 -0.0014458209     1     8     3    10
 0.0883229762     1     8     4     1
 -0.0078420458     1     8     4     2
 0.0038430275     1     8     4     3
 -0.0011278522     1     8     4     4
 0.0011930072     1     8     4     6
 -0.0003123009     1     8     4     7
 -0.0013632516     1     8     4     9
 0.0007701984     1     8     4    10
 -0.0036344967     1     8     5     5
 -0.0020165992     1     8     5    11
 0.1415370366     1     8     6     1
 -0.0053374416     1     8     6     2
 0.0010356230     1     8     6     3
 -0.0024325570     1     8     6     4
 0.0007547425     1     8     6     6
 -0.0005471771     1     8     6     7
 -0.0009913742     1     8     6     9
 0.0002994240     1     8     6    10
 0.0502270333     1     8     7     1
 -0.0022503008     1     8     7     2
 -0.0002649149     1     8     7     3
 -0.0006066776     1     8     7     4
 0.0003089541     1     8     7     6
 -0.0007004551     1     8     7     7
 -0.0004444362     1     8     7     9
 -0.0002540484     1     8     7    10
 -0.3137770330     1     8     8     1
 0.0029461542     1     8     8     2
 0.0006970440     1     8     8     3
 0.0032641725     1     8     8     4
 0.0008356605     1     8     8     6
 0.0009100808     1     8     8     7
 0.0008429742     1     8     8     9
 -0.0003430910     1     8     8    10
 0.0120062819     1     8     9     1
 -0.0010097384     1     8     9     2
 -0.0001408247     1     8     9     3
 0.0000700484     1     8     9     4
 0.0002516599     1     8     9     6
 -0.0003739201     1     8     9     7
 0.0001516257     1     8     9     9
 -0.0007860059     1     8     9    10
 -0.0150353552     1     8    10     1
 0.0011970197     1     8    10     2
 -0.0012693634     1     8    10     3
 0.0007035907     1     8    10     4
 -0.0002461566     1     8    10     6
 -0.0000209929     1     8    10     7
 0.0000602165     1     8    10     9
 -0.0010782767     1     8    10    10
 -0.0011468520     1     8    11     5
 0.0002146570     1     8    11    11
 -0.0632340247     1     9     2     1
 0.0000950863     1     9     2     2
 0.0004372463     1     9     2     3
 0.0006368206     1     9     2     4
 0.0002213771     1     9     2     6
 0.0000792835     1     9     2     7
 -0.0000861589     1     9     2     8
 -0.0001935322     1     9     2    10
 0.0002258172     1     9     3     1
 0.0024066487     1     9     3     2
 -0.0003784486     1     9     3     3
 0.0002841294     1     9     3     4
 -0.0002106615     1     9     3     6
 0.0003101593     1     9     3     7
 -0.0000376049     1     9     3     8
 -0.0000554973     1     9     3    10
 -0.0445342895     1     9     4     1
 0.0025423671     1     9     4     2
 -0.0000977074     1     9     4     3
 -0.0048846951     1     9     4     4
 -0.0029700774     1     9     4     6
 -0.0002490367     1     9     4     7
 0.0013632516     1     9     4     8
 0.0021683344     1     9     4    10
 -0.0071631724     1     9     5     5
 -0.0029943902     1     9     5    11
 0.0044670045     1     9     6     1
 0.0017077884     1     9     6     2
 -0.0007687829     1     9     6     3
 -0.0019723483     1     9     6     4
 -0.0020931384     1     9     6     6
 -0.0004456144     1     9     6     7
 0.0009913742     1     9     6     8
 0.0007373421     1     9     6    10
 -0.0480592482     1     9     7     1
 0.0011775108     1     9     7     2
 -0.0011893037     1     9     7     3
 -0.0004112381     1     9     7     4
 -0.0009013620     1     9     7     6
 -0.0002327795     1     9     7     7
 0.0004444362     1     9     7     8
 -0.0002923888     1     9     7    10
 0.0120062819     1     9     8     1
 -0.0010990539     1     9     8     2
 -0.0001980967     1     9     8     3
 0.0014060200     1     9     8     4
 0.0012435986     1     9     8     6
 0.0000720964     1     9     8     7
 -0.0008429742     1     9     8     8
 -0.0008473312     1     9     8    10
 -0.3600342012     1     9     9     1
 0.0005490629     1     9     9     2
 -0.0005190561     1     9     9     3
 0.0008553716     1     9     9     4
 0.0003078898     1     9     9     6
 0.0000749937     1     9     9     7
 -0.0001516257     1     9     9     8
 -0.0001556813     1     9     9    10
 -0.0189148288     1     9    10     1
 -0.0002704927     1     9    10     2
 -0.0037672988     1     9    10     3
 0.0019747814     1     9    10     4
 0.0003578261     1     9    10     6
 -0.0011016056     1     9    10     7
 -0.0000602165     1     9    10     8
 -0.0026622210     1     9    10    10
 -0.0024610082     1     9    11     5
 -0.0015215301     1     9    11    11
 -0.0296410795     1    10     2     1
 0.0043806925     1    10     2     2
 0.0036851279     1    10     2     3
 -0.0018957508     1    10     2     4
 -0.0008819295     1    10     2     6
 0.0006379104     1    10     2     7
 0.0003212486     1    10     2     8
 0.0001935322     1    10     2     9
 -0.1875082773     1    10     3     1
 0.0174103564     1    10     3     2
 -0.0001328702     1    10     3     3
 0.0022820476     1    10     3     4
 -0.0028077048     1    10     3     6
 0.0017450473     1    10     3     7
 0.0014458209     1    10     3     8
 0.0000554973     1    10     3     9
 0.1463719350     1    10     4     1
 -0.0120369611     1    10     4     2
 0.0019753256     1    10     4     3
 -0.0021809592     1    10     4     4
 0.0017707292     1    10     4     6
 -0.0012983082     1    10     4     7
 -0.0007701984     1    10     4     8
 -0.0021683344     1    10     4     9
 0.0005033698     1    10     5     5
 0.0001347252     1    10     5    11
 0.0532425854     1    10     6     1
 -0.0038075484     1    10     6     2
 0.0016935457     1    10     6     3
 -0.0016128134     1    10     6     4
 0.0007158812     1    10     6     6
 -0.0006238516     1    10     6     7
 -0.0002994240     1    10     6     8
 -0.0007373421     1    10     6     9
 -0.0891624970     1    10     7     1
 0.0042556978     1    10     7     2
 -0.0018951721     1    10     7     3
 0.0015256723     1    10     7     4
 -0.0009664895     1    10     7     6
 0.0011993662     1    10     7     7
 0.0002540484     1    10     7     8
 0.0002923888     1    10     7     9
 -0.0150353552     1    10     8     1
 0.0015236788     1    10     8     2
 0.0002195306     1    10     8     3
 -0.0000541460     1    10     8     4
 -0.0005461163     1    10     8     6
 0.0002323163     1    10     8     7
 0.0003430910     1    10     8     8
 0.0008473312     1    10     8     9
 -0.0189148288     1    10     9     1
 -0.0000885523     1    10     9     2
 -0.0037656875     1    10     9     3
 -0.0002411567     1    10     9     4
 -0.0003751797     1    10     9     6
 -0.0008075058     1    10     9     7
 0.0007860059     1    10     9     8
 0.0001556813     1    10     9     9
 -0.4917869572     1    10    10     1
 0.0122016937     1    10    10     2
 -0.0037424080     1    10    10     3
 0.0016169760     1    10    10     4
 -0.0037534711     1    10    10     6
 0.0018717343     1    10    10     7
 0.0010782767     1    10    10     8
 0.0026622210     1    10    10     9
 0.0003835211     1    10    11     5
 0.0002863214     1    10    11    11
 0.0035196627     1    11     2     5
 -0.0016955012     1    11     3     5
 -0.0011093902     1    11     4     5
 -0.2147982544     1    11     5     1
 0.0182772795     1    11     5     2
 -0.0048680620     1    11     5     3
 0.0022037100     1    11     5     4
 -0.0042347595     1    11     5     6
 0.0012752033     1    11     5     7
 0.0020165992     1    11     5     8
 0.0029943902     1    11     5     9
 -0.0001347252     1    11     5    10
 0.0006880996     1    11     6     5
 -0.0009835769     1    11     7     5
 0.0009023914     1    11     8     5
 0.0005339985     1    11     9     5
 0.0003000463     1    11    10     5
 -0.4312729669     1    11    11     1
 0.0079234190     1    11    11     2
 -0.0004202471     1    11    11     3
 0.0037138499     1    11    11     4
 -0.0009580067     1    11    11     6
 0.0018424778     1    11    11     7
 -0.0002146570     1    11    11     8
 0.0015215301     1    11    11     9
 -0.0002863214     1    11    11    10
 -0.9971484777     2     1     1     2
 0.0406440459     2     1     1     3
 -0.0680724400     2     1     1     4
 0.1014552019     2     1     1     6
 -0.0747042397     2     1     1     7
 -0.0300027541     2     1     1     8
 -0.0632340247     2     1     1     9
 -0.0296410795     2     1     1    10
 -0.0055623280     2     1     3     2
 -0.0323692684     2     1     3     3
 0.0040067060     2     1     3     4
 -0.0028519299     2     1     3     6
 -0.0083082471     2     1     3     7
 0.0022912093     2     1     3     8
 -0.0018134091     2     1     3     9
 -0.0126895178     2     1     3    10
 0.0019911873     2     1     4     2
 0.0045713071     2     1     4     3
 -0.0293408963     2     1     4     4
 -0.0125281207     2     1     4     6
 -0.0019181307     2     1     4     7
 0.0063714965     2     1     4     8
 -0.0017600666     2     1     4     9
 0.0093428060     2     1     4    10
 -0.0426476928     2     1     5     5
 -0.0136609593     2     1     5    11
 -0.0003733637     2     1     6     2
 -0.0042323707     2     1     6     3
 -0.0146988268     2     1     6     4
 -0.0097985488     2     1     6     6
 -0.0035924045     2     1     6     7
 0.0051179924     2     1     6     8
 -0.0014644158     2     1     6     9
 0.0029071113     2     1     6    10
 -0.0017408662     2     1     7     2
 -0.0101720887     2     1     7     3
 -0.0026421486     2     1     7     4
 -0.0034565957     2     1     7     6
 -0.0037715225     2     1     7     7
 0.0020825570     2     1     7     8
 -0.0010870399     2     1     7     9
 -0.0036093770     2     1     7    10
 0.0003192542     2     1     8     2
 0.0033316230     2     1     8     3
 0.0078420458     2     1     8     4
 0.0053374416     2     1     8     6
 0.0022503008     2     1     8     7
 -0.0029461542     2     1     8     8
 0.0010097384     2     1     8     9
 -0.0011970197     2     1     8    10
 -0.0000950863     2     1     9     2
 -0.0024066487     2     1     9     3
 -0.0025423671     2     1     9     4
 -0.0017077884     2     1     9     6
 -0.0011775108     2     1     9     7
 0.0010990539     2     1     9     8
 -0.0005490629     2     1     9     9
 0.0002704927     2     1     9    10
 -0.0043806925     2     1    10     2
 -0.0174103564     2     1    10     3
 0.0120369611     2     1    10     4
 0.0038075484     2     1    10     6
 -0.0042556978     2     1    10     7
 -0.0015236788     2     1    10     8
 0.0000885523     2     1    10     9
 -0.0122016937     2     1    10    10
 -0.0182772795     2     1    11     5
 -0.0079234190     2     1    11    11
 0.9971484777     2     2     1     1
 0.0055623280     2     2     1     3
 -0.0019911873     2     2     1     4
 0.0003733637     2     2     1     6
 0.0017408662     2     2     1     7
 -0.0003192542     2     2     1     8
 0.0000950863     2     2     1     9
 0.0043806925     2     2     1    10
 0.0055623280     2     2     3     1
 0.5250143590     2     2     3     3
 -0.0286976271     2     2     3     4
 0.0343644751     2     2     3     6
 0.0533454547     2     2     3     7
 -0.0115706481     2     2     3     8
 -0.0113121079     2     2     3     9
 0.0663598988     2     2     3    10
 -0.0019911873     2     2     4     1
 -0.0286976271     2     2     4     3
 0.5015685768     2     2     4     4
 0.0974837400     2     2     4     6
 0.0233863317     2     2     4     7
 -0.0324161287     2     2     4     8
 0.0170494043     2     2     4     9
 -0.0586963197     2     2     4    10
 0.5802342930     2     2     5     5
 0.0869691063     2     2     5    11
 0.0003733637     2     2     6     1
 0.0343644751     2     2     6     3
 0.0974837400     2     2     6     4
 0.3358921155     2     2     6     6
 0.0106014903     2     2     6     7
 -0.0843443237     2     2     6     8
 -0.0043393451     2     2     6     9
 -0.0245151779     2     2     6    10
 0.0017408662     2     2     7     1
 0.0533454547     2     2     7     3
 0.0233863317     2     2     7     4
 0.0106014903     2     2     7     6
 0.2758973531     2     2     7     7
 -0.0330073707     2     2     7     8
 0.0290123845     2     2     7     9
 0.0568437120     2     2     7    10
 -0.0003192542     2     2     8     1
 -0.0115706481     2     2     8     3
 -0.0324161287     2     2     8     4