&FCI NORB= 16,NELEC= 10,MS2=0,
 ORBSYM=1,1,1,1,1,1,1,1,1,1,1,1,1,1,1,1
 ISYM=1,
&END
 0.9819000541     1     1     2     2
 0.0724632479     1     1     2     4
 -0.1838536151     1     1     2     6
 0.1483084172     1     1     2     9
 -0.0173752035     1     1     2    10
 0.1263914907     1     1     2    13
 0.2408060317     1     1     2    16
 0.8562193559     1     1     3     3
 -0.2308712879     1     1     3     7
 0.1532381901     1     1     3     8
 -0.3095450657     1     1     3    12
 0.0724632479     1     1     4     2
 0.9530466017     1     1     4     4
 0.1059695991     1     1     4     6
 -0.1593225669     1     1     4     9
 -0.3665504667     1     1     4    10
 0.0828276317     1     1     4    13
 0.1219779232     1     1     4    16
 1.0075840358     1     1     5     5
 0.4644976706     1     1     5    11
 -0.0184552834     1     1     5    15
 -0.1838536151     1     1     6     2
 0.1059695991     1     1     6     4
 0.3991656761     1     1     6     6
 -0.1606212634     1     1     6     9
 -0.0848063123     1     1     6    10
 -0.0589470715     1     1     6    13
 -0.1125420084     1     1     6    16
 -0.2308712879     1     1     7     3
 0.3925620266     1     1     7     7
 -0.1545165558     1     1     7     8
 0.2065619842     1     1     7    12
 0.1532381901     1     1     8     3
 -0.1545165558     1     1     8     7
 0.5541002963     1     1     8     8
 -0.1088818795     1     1     8    12
 0.1483084172     1     1     9     2
 -0.1593225669     1     1     9     4
 -0.1606212634     1     1     9     6
 0.5747415599     1     1     9     9
 0.1222649711     1     1     9    10
 0.0005400510     1     1     9    13
 0.0151794442     1     1     9    16
 -0.0173752035     1     1    10     2
 -0.3665504667     1     1    10     4
 -0.0848063123     1     1    10     6
 0.1222649711     1     1    10     9
 0.7947683809     1     1    10    10
 -0.0480289906     1     1    10    13
 -0.0979666755     1     1    10    16
 0.4644976706     1     1    11     5
 0.9485549788     1     1    11    11
 -0.0306929304     1     1    11    15
 -0.3095450657     1     1    12     3
 0.2065619842     1     1    12     7
 -0.1088818795     1     1    12     8
 0.7471386027     1     1    12    12
 0.1263914907     1     1    13     2
 0.0828276317     1     1    13     4
 -0.0589470715     1     1    13     6
 0.0005400510     1     1    13     9
 -0.0480289906     1     1    13    10
 0.5639135056     1     1    13    13
 0.0918872826     1     1    13    16
 0.5156841083     1     1    14    14
 -0.0184552834     1     1    15     5
 -0.0306929304     1     1    15    11
 0.5130150150     1     1    15    15
 0.2408060317     1     1    16     2
 0.1219779232     1     1    16     4
 -0.1125420084     1     1    16     6
 0.0151794442     1     1    16     9
 -0.0979666755     1     1    16    10
 0.0918872826     1     1    16    13
 0.7448702443     1     1    16    16
 -0.9819000541     1     2     2     1
 -0.0068700511     1     2     2     4
 -0.0026412080     1     2     2     6
 0.0045001273     1     2     2     9
 0.0088948138     1     2     2    10
 -0.0007402276     1     2     2    13
 -0.0007809376     1     2     2    16
 0.0297728608     1     2     3     3
 -0.0166196196     1     2     3     7
 0.0165506702     1     2     3     8
 -0.0332987559     1     2     3    12
 -0.0724632479     1     2     4     1
 0.0354990415     1     2     4     4
 0.0095732792     1     2     4     6
 -0.0169059552     1     2     4     9
 -0.0359712547     1     2     4    10
 0.0049711340     1     2     4    13
 0.0086786368     1     2     4    16
 0.0411812123     1     2     5     5
 0.0479865211     1     2     5    11
 -0.0029413596     1     2     5    15
 0.1838536151     1     2     6     1
 0.0097161345     1     2     6     4
 0.0025610053     1     2     6     6
 -0.0048730172     1     2     6     9
 -0.0101535066     1     2     6    10
 0.0013470183     1     2     6    13
 0.0021332008     1     2     6    16
 -0.0133741543     1     2     7     3
 0.0073632856     1     2     7     7
 -0.0074380435     1     2     7     8
 0.0152975891     1     2     7    12
 0.0117634140     1     2     8     3
 -0.0064645843     1     2     8     7
 0.0061691615     1     2     8     8
 -0.0126700993     1     2     8    12
 -0.1483084172     1     2     9     1
 -0.0144187550     1     2     9     4
 -0.0039297104     1     2     9     6
 0.0067437139     1     2     9     9
 0.0157297088     1     2     9    10
 -0.0025941868     1     2     9    13
 -0.0036225223     1     2     9    16
 0.0173752035     1     2    10     1
 -0.0243809240     1     2    10     4
 -0.0061423973     1     2    10     6
 0.0119389320     1     2    10     9
 0.0266143804     1     2    10    10
 -0.0052440260     1     2    10    13
 -0.0075264566     1     2    10    16
 0.0322053571     1     2    11     5
 0.0403451399     1     2    11    11
 -0.0017113887     1     2    11    15
 -0.0208261202     1     2    12     3
 0.0118751631     1     2    12     7
 -0.0112932413     1     2    12     8
 0.0253154644     1     2    12    12
 -0.1263914907     1     2    13     1
 0.0028036486     1     2    13     4
 0.0006709205     1     2    13     6
 -0.0017652935     1     2    13     9
 -0.0045344831     1     2    13    10
 0.0012215271     1     2    13    13
 0.0014875675     1     2    13    16
 -0.0004163901     1     2    14    14
 -0.0010900074     1     2    15     5
 -0.0003862207     1     2    15    11
 0.0000222003     1     2    15    15
 -0.2408060317     1     2    16     1
 0.0034044478     1     2    16     4
 0.0005540202     1     2    16     6
 -0.0012890843     1     2    16     9
 -0.0039365159     1     2    16    10
 0.0011408475     1     2    16    13
 0.0025847772     1     2    16    16
 -0.0031098302     1     3     2     7
 0.0046709137     1     3     2     8
 -0.0123320994     1     3     2    12
 -0.8562193559     1     3     3     1
 -0.0297728608     1     3     3     2
 -0.0103550220     1     3     3     4
 0.0048901005     1     3     3     6
 0.0007581958     1     3     3     9
 0.0050528792     1     3     3    10
 -0.0115654102     1     3     3    13
 -0.0154433562     1     3     3    16
 0.0018268339     1     3     4     7
 -0.0060817994     1     3     4     8
 -0.0021650189     1     3     4    12
 -0.0059027165     1     3     5    14
 -0.0024940750     1     3     6     7
 -0.0003613455     1     3     6     8
 -0.0017504853     1     3     6    12
 0.2308712879     1     3     7     1
 0.0133741543     1     3     7     2
 0.0045030241     1     3     7     4
 -0.0061934908     1     3     7     6
 0.0034499416     1     3     7     9
 -0.0009498984     1     3     7    10
 0.0052030110     1     3     7    13
 0.0080020935     1     3     7    16
 -0.1532381901     1     3     8     1
 -0.0117634140     1     3     8     2
 -0.0035735546     1     3     8     4
 0.0048861680     1     3     8     6
 -0.0089382633     1     3     8     9
 -0.0034068334     1     3     8    10
 -0.0057272938     1     3     8    13
 -0.0052803491     1     3     8    16
 0.0022562025     1     3     9     7
 -0.0049005842     1     3     9     8
 0.0054345649     1     3     9    12
 -0.0011583556     1     3    10     7
 0.0021739152     1     3    10     8
 -0.0041818086     1     3    10    12
 -0.0000637493     1     3    11    14
 0.3095450657     1     3    12     1
 0.0208261202     1     3    12     2
 0.0072823285     1     3    12     4
 -0.0082569128     1     3    12     6
 0.0059808982     1     3    12     9
 -0.0078195163     1     3    12    10
 0.0094071103     1     3    12    13
 0.0200651213     1     3    12    16
 -0.0008361337     1     3    13     7
 -0.0006636727     1     3    13     8
 -0.0037347603     1     3    13    12
 0.0009302546     1     3    14     5
 0.0082451161     1     3    14    11
 -0.0064939743     1     3    14    15
 -0.0061464112     1     3    15    14
 -0.0000704127     1     3    16     7
 0.0016764424     1     3    16     8
 0.0024322230     1     3    16    12
 -0.0724632479     1     4     2     1
 0.0068700511     1     4     2     2
 -0.0002001417     1     4     2     6
 -0.0024537263     1     4     2     9
 -0.0114150986     1     4     2    10
 0.0021820294     1     4     2    13
 0.0051770601     1     4     2    16
 0.0103550220     1     4     3     3
 -0.0026499206     1     4     3     7
 -0.0025668224     1     4     3     8
 -0.0093924535     1     4     3    12
 -0.9530466017     1     4     4     1
 -0.0354990415     1     4     4     2
 0.0109745706     1     4     4     6
 -0.0128649620     1     4     4     9
 -0.0059468648     1     4     4    10
 0.0004256363     1     4     4    13
 -0.0176822012     1     4     4    16
 0.0139012594     1     4     5     5
 0.0151144648     1     4     5    11
 0.0055600221     1     4     5    15
 -0.1059695991     1     4     6     1
 -0.0097161345     1     4     6     2
 0.0056556077     1     4     6     6
 -0.0052290011     1     4     6     9
 -0.0023320805     1     4     6    10
 -0.0011297021     1     4     6    13
 -0.0058957039     1     4     6    16
 -0.0045030241     1     4     7     3
 0.0038906585     1     4     7     7
 -0.0017037403     1     4     7     8
 0.0067716737     1     4     7    12
 0.0035735546     1     4     8     3
 -0.0041295632     1     4     8     7
 0.0062377904     1     4     8     8
 -0.0108862640     1     4     8    12
 0.1593225669     1     4     9     1
 0.0144187550     1     4     9     2
 -0.0070817593     1     4     9     6
 0.0111596260     1     4     9     9
 -0.0001579462     1     4     9    10
 0.0035391265     1     4     9    13
 0.0089963714     1     4     9    16
 0.3665504667     1     4    10     1
 0.0243809240     1     4    10     2
 -0.0123110942     1     4    10     6
 0.0105137458     1     4    10     9
 0.0046969412     1     4    10    10
 0.0096218720     1     4    10    13
 0.0199210258     1     4    10    16
 0.0110094288     1     4    11     5
 0.0135641614     1     4    11    11
 -0.0000646699     1     4    11    15
 -0.0072823285     1     4    12     3
 0.0035489509     1     4    12     7
 -0.0028201075     1     4    12     8
 0.0056221632     1     4    12    12
 -0.0828276317     1     4    13     1
 -0.0028036486     1     4    13     2
 0.0003376133     1     4    13     6
 0.0018434768     1     4    13     9
 0.0091400218     1     4    13    10
 0.0004409236     1     4    13    13
 -0.0041726458     1     4    13    16
 0.0061481258     1     4    14    14
 -0.0009878645     1     4    15     5
 -0.0083462399     1     4    15    11
 0.0042807817     1     4    15    15
 -0.1219779232     1     4    16     1
 -0.0034044478     1     4    16     2
 0.0017884791     1     4    16     6
 -0.0029900224     1     4    16     9
 -0.0004371696     1     4    16    10
 -0.0015601550     1     4    16    13
 -0.0001698729     1     4    16    16
 0.0155830233     1     5     2    11
 -0.0017948148     1     5     2    15
 -0.0069534756     1     5     3    14
 0.0041965610     1     5     4    11
 0.0066453519     1     5     4    15
 -1.0075840358     1     5     5     1
 -0.0411812123     1     5     5     2
 -0.0139012594     1     5     5     4
 0.0103787541     1     5     5     6
 -0.0124966735     1     5     5     9
 0.0092925132     1     5     5    10
 -0.0124095438     1     5     5    13
 -0.0129349780     1     5     5    16
 0.0002405654     1     5     6    11
 0.0010945452     1     5     6    15
 0.0013927251     1     5     7    14
 -0.0006896609     1     5     8    14
 0.0048283941     1     5     9    11
 0.0002696732     1     5     9    15
 -0.0025470837     1     5    10    11
 -0.0016166598     1     5    10    15
 -0.4644976706     1     5    11     1
 -0.0322053571     1     5    11     2
 -0.0110094288     1     5    11     4
 0.0132259823     1     5    11     6
 -0.0109499980     1     5    11     9
 0.0077113765     1     5    11    10
 -0.0144283258     1     5    11    13
 -0.0269527786     1     5    11    16
 0.0008745215     1     5    12    14
 0.0006054470     1     5    13    11
 -0.0008652559     1     5    13    15
 -0.0009302546     1     5    14     3
 -0.0019091602     1     5    14     7
 0.0023708391     1     5    14     8
 -0.0059907048     1     5    14    12
 0.0184552834     1     5    15     1
 0.0010900074     1     5    15     2
 0.0009878645     1     5    15     4
 -0.0014922029     1     5    15     6
 0.0043082886     1     5    15     9
 0.0047633845     1     5    15    10
 -0.0011996307     1     5    15    13
 -0.0009845939     1     5    15    16
 -0.0113233302     1     5    16    11
 -0.0007147741     1     5    16    15
 0.1838536151     1     6     2     1
 0.0026412080     1     6     2     2
 0.0002001417     1     6     2     4
 -0.0009434291     1     6     2     9
 -0.0039004188     1     6     2    10
 0.0006408464     1     6     2    13
 0.0015386994     1     6     2    16
 -0.0048901005     1     6     3     3
 0.0037237326     1     6     3     7
 -0.0052906391     1     6     3     8
 0.0065326441     1     6     3    12
 -0.1059695991     1     6     4     1
 -0.0095732792     1     6     4     2
 -0.0109745706     1     6     4     4
 0.0018683361     1     6     4     9
 0.0099597480     1     6     4    10
 -0.0014675768     1     6     4    13
 -0.0077129720     1     6     4    16
 -0.0103787541     1     6     5     5
 -0.0128370718     1     6     5    11
 0.0025981039     1     6     5    15
 -0.3991656761     1     6     6     1
 -0.0025610053     1     6     6     2
 -0.0056556077     1     6     6     4
 0.0013501442     1     6     6     9
 0.0051337931     1     6     6    10
 -0.0011310035     1     6     6    13
 -0.0027987742     1     6     6    16
 0.0061934908     1     6     7     3
 -0.0029302758     1     6     7     7
 0.0034523608     1     6     7     8
 -0.0063925400     1     6     7    12
 -0.0048861680     1     6     8     3
 0.0020320211     1     6     8     7
 -0.0012360246     1     6     8     8
 0.0034074281     1     6     8    12
 0.1606212634     1     6     9     1
 0.0039297104     1     6     9     2
 0.0070817593     1     6     9     4
 -0.0002607619     1     6     9     9
 -0.0075686917     1     6     9    10
 0.0021404977     1     6     9    13
 0.0041053283     1     6     9    16
 0.0848063123     1     6    10     1
 0.0061423973     1     6    10     2
 0.0123110942     1     6    10     4
 -0.0032915416     1     6    10     9
 -0.0116966957     1     6    10    10
 0.0049419412     1     6    10    13
 0.0086092434     1     6    10    16
 -0.0132259823     1     6    11     5
 -0.0158720932     1     6    11    11
 0.0008223654     1     6    11    15
 0.0082569128     1     6    12     3
 -0.0047260313     1     6    12     7
 0.0047194236     1     6    12     8
 -0.0103878338     1     6    12    12
 0.0589470715     1     6    13     1
 -0.0006709205     1     6    13     2
 -0.0003376133     1     6    13     4
 0.0007957295     1     6    13     9
 0.0034130277     1     6    13    10
 -0.0000519516     1     6    13    13
 -0.0014835552     1     6    13    16
 0.0019073925     1     6    14    14
 0.0014922029     1     6    15     5
 -0.0005346230     1     6    15    11
 0.0011766341     1     6    15    15
 0.1125420084     1     6    16     1
 -0.0005540202     1     6    16     2
 -0.0017884791     1     6    16     4
 0.0000379810     1     6    16     9
 0.0018769972     1     6    16    10
 -0.0008315328     1     6    16    13
 -0.0007827820     1     6    16    16
 0.0031098302     1     7     2     3
 -0.0009780505     1     7     2     8
 0.0033209945     1     7     2    12
 0.2308712879     1     7     3     1
 0.0166196196     1     7     3     2
 0.0026499206     1     7     3     4
 -0.0037237326     1     7     3     6
 0.0012260600     1     7     3     9
 0.0002982841     1     7     3    10
 0.0060647065     1     7     3    13
 0.0081427095     1     7     3    16
 -0.0018268339     1     7     4     3
 0.0024312002     1     7     4     8
 0.0031999077     1     7     4    12
 0.0033273289     1     7     5    14
 0.0024940750     1     7     6     3
 0.0014215994     1     7     6     8
 -0.0016573350     1     7     6    12
 -0.3925620266     1     7     7     1
 -0.0073632856     1     7     7     2
 -0.0038906585     1     7     7     4
 0.0029302758     1     7     7     6
 -0.0012359977     1     7     7     9
 0.0018531287     1     7     7    10
 -0.0030419694     1     7     7    13
 -0.0046468928     1     7     7    16
 0.1545165558     1     7     8     1
 0.0064645843     1     7     8     2
 0.0041295632     1     7     8     4
 -0.0020320211     1     7     8     6
 0.0037290751     1     7     8     9
 -0.0002697000     1     7     8    10
 0.0034261573     1     7     8    13
 0.0032830879     1     7     8    16
 -0.0022562025     1     7     9     3
 0.0014746653     1     7     9     8
 -0.0005110017     1     7     9    12
 0.0011583556     1     7    10     3
 -0.0005871847     1     7    10     8
 0.0009966677     1     7    10    12
 0.0000375564     1     7    11    14
 -0.2065619842     1     7    12     1
 -0.0118751631     1     7    12     2
 -0.0035489509     1     7    12     4
 0.0047260313     1     7    12     6
 -0.0035982214     1     7    12     9
 0.0037457681     1     7    12    10
 -0.0051306099     1     7    12    13
 -0.0110123861     1     7    12    16
 0.0008361337     1     7    13     3
 0.0007778462     1     7    13     8
 0.0011581671     1     7    13    12
 0.0019091602     1     7    14     5
 -0.0017171728     1     7    14    11
 0.0033675679     1     7    14    15
 0.0033029427     1     7    15    14
 0.0000704127     1     7    16     3
 -0.0008752402     1     7    16     8
 -0.0013512204     1     7    16    12
 -0.0046709137     1     8     2     3
 0.0009780505     1     8     2     7
 -0.0012800073     1     8     2    12
 -0.1532381901     1     8     3     1
 -0.0165506702     1     8     3     2
 0.0025668224     1     8     3     4
 0.0052906391     1     8     3     6
 -0.0040876960     1     8     3     9
 -0.0055914763     1     8     3    10
 -0.0051416426     1     8     3    13
 -0.0070704653     1     8     3    16
 0.0060817994     1     8     4     3
 -0.0024312002     1     8     4     7
 -0.0080205884     1     8     4    12
 -0.0031009263     1     8     5    14
 0.0003613455     1     8     6     3
 -0.0014215994     1     8     6     7
 -0.0013234073     1     8     6    12
 0.1545165558     1     8     7     1
 0.0074380435     1     8     7     2
 0.0017037403     1     8     7     4
 -0.0034523608     1     8     7     6
 0.0022576897     1     8     7     9
 0.0003273966     1     8     7    10
 0.0026531669     1     8     7    13
 0.0041585883     1     8     7    16
 -0.5541002963     1     8     8     1
 -0.0061691615     1     8     8     2
 -0.0062377904     1     8     8     4
 0.0012360246     1     8     8     6
 -0.0024021825     1     8     8     9
 0.0024120758     1     8     8    10
 -0.0034610036     1     8     8    13
 -0.0034592311     1     8     8    16
 0.0049005842     1     8     9     3
 -0.0014746653     1     8     9     7
 -0.0023926925     1     8     9    12
 -0.0021739152     1     8    10     3
 0.0005871847     1     8    10     7
 0.0003135622     1     8    10    12
 -0.0001074862     1     8    11    14
 0.1088818795     1     8    12     1
 0.0112932413     1     8    12     2
 0.0028201075     1     8    12     4
 -0.0047194236     1     8    12     6
 0.0037357050     1     8    12     9
 -0.0029260915     1     8    12    10
 0.0048696630     1     8    12    13
 0.0104384980     1     8    12    16
 0.0006636727     1     8    13     3
 -0.0007778462     1     8    13     7
 -0.0026096331     1     8    13    12
 -0.0023708391     1     8    14     5
 0.0009237367     1     8    14    11
 -0.0030577508     1     8    14    15
 -0.0030379286     1     8    15    14
 -0.0016764424     1     8    16     3
 0.0008752402     1     8    16     7
 0.0030085110     1     8    16    12
 -0.1483084172     1     9     2     1
 -0.0045001273     1     9     2     2
 0.0024537263     1     9     2     4
 0.0009434291     1     9     2     6
 0.0037008578     1     9     2    10
 -0.0008110715     1     9     2    13
 -0.0023245313     1     9     2    16
 -0.0007581958     1     9     3     3
 -0.0012260600     1     9     3     7
 0.0040876960     1     9     3     8
 -0.0006204288     1     9     3    12
 0.1593225669     1     9     4     1
 0.0169059552     1     9     4     2
 0.0128649620     1     9     4     4
 -0.0018683361     1     9     4     6
 -0.0106944812     1     9     4    10
 0.0017431034     1     9     4    13
 0.0120832845     1     9     4    16
 0.0124966735     1     9     5     5
 0.0156079784     1     9     5    11
 -0.0040619660     1     9     5    15
 0.1606212634     1     9     6     1
 0.0048730172     1     9     6     2
 0.0052290011     1     9     6     4
 -0.0013501442     1     9     6     6
 -0.0042747547     1     9     6    10
 0.0013448750     1     9     6    13
 0.0040689782     1     9     6    16
 -0.0034499416     1     9     7     3
 0.0012359977     1     9     7     7
 -0.0022576897     1     9     7     8
 0.0030876833     1     9     7    12
 0.0089382633     1     9     8     3
 -0.0037290751     1     9     8     7
 0.0024021825     1     9     8     8
 -0.0061279642     1     9     8    12
 -0.5747415599     1     9     9     1
 -0.0067437139     1     9     9     2
 -0.0111596260     1     9     9     4
 0.0002607619     1     9     9     6
 0.0116750873     1     9     9    10
 -0.0034537347     1     9     9    13
 -0.0067096763     1     9     9    16
 -0.1222649711     1     9    10     1
 -0.0119389320     1     9    10     2
 -0.0105137458     1     9    10     4
 0.0032915416     1     9    10     6
 0.0090883742     1     9    10    10
 -0.0068547384     1     9    10    13
 -0.0128932561     1     9    10    16
 0.0109499980     1     9    11     5
 0.0134543542     1     9    11    11
 -0.0008707719     1     9    11    15
 -0.0059808982     1     9    12     3
 0.0035982214     1     9    12     7
 -0.0037357050     1     9    12     8
 0.0085386057     1     9    12    12
 -0.0005400510     1     9    13     1
 0.0017652935     1     9    13     2
 -0.0018434768     1     9    13     4
 -0.0007957295     1     9    13     6
 -0.0031506569     1     9    13    10
 -0.0001818891     1     9    13    13
 0.0020714950     1     9    13    16
 -0.0031172338     1     9    14    14
 -0.0043082886     1     9    15     5
 -0.0011707058     1     9    15    11
 -0.0018336354     1     9    15    15
 -0.0151794442     1     9    16     1
 0.0012890843     1     9    16     2
 0.0029900224     1     9    16     4
 -0.0000379810     1     9    16     6
 -0.0029991555     1     9    16    10
 0.0013215492     1     9    16    13
 0.0011427821     1     9    16    16
 0.0173752035     1    10     2     1
 -0.0088948138     1    10     2     2
 0.0114150986     1    10     2     4
 0.0039004188     1    10     2     6
 -0.0037008578     1    10     2     9
 -0.0007102878     1    10     2    13
 -0.0035974264     1    10     2    16
 -0.0050528792     1    10     3     3
 -0.0002982841     1    10     3     7
 0.0055914763     1    10     3     8
 0.0035306884     1    10     3    12
 0.3665504667     1    10     4     1
 0.0359712547     1    10     4     2
 0.0059468648     1    10     4     4
 -0.0099597480     1    10     4     6
 0.0106944812     1    10     4     9
 0.0005847638     1    10     4    13
 0.0204255010     1    10     4    16
 -0.0092925132     1    10     5     5
 -0.0098856651     1    10     5    11
 -0.0063456441     1    10     5    15
 0.0848063123     1    10     6     1
 0.0101535066     1    10     6     2
 0.0023320805     1    10     6     4
 -0.0051337931     1    10     6     6
 0.0042747547     1    10     6     9
 0.0015337235     1    10     6    13
 0.0067458309     1    10     6    16
 0.0009498984     1    10     7     3
 -0.0018531287     1    10     7     7
 -0.0003273966     1    10     7     8
 -0.0027446352     1    10     7    12
 0.0034068334     1    10     8     3
 0.0002697000     1    10     8     7
 -0.0024120758     1    10     8     8
 0.0032303182     1    10     8    12
 -0.1222649711     1    10     9     1
 -0.0157297088     1    10     9     2
 0.0001579462     1    10     9     4
 0.0075686917     1    10     9     6
 -0.0116750873     1    10     9     9
 -0.0037138540     1    10     9    13
 -0.0099057245     1    10     9    16
 -0.7947683809     1    10    10     1
 -0.0266143804     1    10    10     2
 -0.0046969412     1    10    10     4
 0.0116966957     1    10    10     6
 -0.0090883742     1    10    10     9
 -0.0109662115     1    10    10    13
 -0.0223899519     1    10    10    16
 -0.0077113765     1    10    11     5
 -0.0093734731     1    10    11    11
 -0.0002351855     1    10    11    15
 0.0078195163     1    10    12     3
 -0.0037457681     1    10    12     7
 0.0029260915     1    10    12     8
 -0.0058422220     1    10    12    12
 0.0480289906     1    10    13     1
 0.0045344831     1    10    13     2
 -0.0091400218     1    10    13     4
 -0.0034130277     1    10    13     6
 0.0031506569     1    10    13     9
 -0.0013389649     1    10    13    13
 0.0031857138     1    10    13    16
 -0.0060754307     1    10    14    14
 -0.0047633845     1    10    15     5
 0.0018380769     1    10    15    11
 -0.0038619335     1    10    15    15
 0.0979666755     1    10    16     1
 0.0039365159     1    10    16     2
 0.0004371696     1    10    16     4
 -0.0018769972     1    10    16     6
 0.0029991555     1    10    16     9
 0.0017565690     1    10    16    13
 0.0008999208     1    10    16    16
 -0.0155830233     1    11     2     5
 -0.0013008304     1    11     2    15
 -0.0081556428     1    11     3    14
 -0.0041965610     1    11     4     5
 0.0081194449     1    11     4    15
 -0.4644976706     1    11     5     1
 -0.0479865211     1    11     5     2
 -0.0151144648     1    11     5     4
 0.0128370718     1    11     5     6
 -0.0156079784     1    11     5     9
 0.0098856651     1    11     5    10
 -0.0148738577     1    11     5    13
 -0.0156521180     1    11     5    16
 -0.0002405654     1    11     6     5
 0.0013569267     1    11     6    15
 0.0017568648     1    11     7    14
 -0.0010419395     1    11     8    14
 -0.0048283941     1    11     9     5
 0.0002998204     1    11     9    15
 0.0025470837     1    11    10     5
 -0.0020580527     1    11    10    15
 -0.9485549788     1    11    11     1
 -0.0403451399     1    11    11     2
 -0.0135641614     1    11    11     4
 0.0158720932     1    11    11     6
 -0.0134543542     1    11    11     9
 0.0093734731     1    11    11    10
 -0.0175357591     1    11    11    13
 -0.0326477393     1    11    11    16
 0.0010880957     1    11    12    14
 -0.0006054470     1    11    13     5
 -0.0009814135     1    11    13    15
 -0.0082451161     1    11    14     3
 0.0017171728     1    11    14     7
 -0.0009237367     1    11    14     8
 0.0009172793     1    11    14    12
 0.0306929304     1    11    15     1
 0.0003862207     1    11    15     2
 0.0083462399     1    11    15     4
 0.0005346230     1    11    15     6
 0.0011707058     1    11    15     9
 -0.0018380769     1    11    15    10
 -0.0003608505     1    11    15    13
 -0.0000450655     1    11    15    16
 0.0113233302     1    11    16     5
 -0.0012178565     1    11    16    15
 0.0123320994     1    12     2     3
 -0.0033209945     1    12     2     7
 0.0012800073     1    12     2     8
 0.3095450657     1    12     3     1
 0.0332987559     1    12     3     2
 0.0093924535     1    12     3     4
 -0.0065326441     1    12     3     6
 0.0006204288     1    12     3     9
 -0.0035306884     1    12     3    10
 0.0131582940     1    12     3    13
 0.0177750426     1    12     3    16
 0.0021650189     1    12     4     3
 -0.0031999077     1    12     4     7
 0.0080205884     1    12     4     8
 0.0068450345     1    12     5    14
 0.0017504853     1    12     6     3
 0.0016573350     1    12     6     7
 0.0013234073     1    12     6     8
 -0.2065619842     1    12     7     1
 -0.0152975891     1    12     7     2
 -0.0067716737     1    12     7     4
 0.0063925400     1    12     7     6
 -0.0030876833     1    12     7     9
 0.0027446352     1    12     7    10
 -0.0062999218     1    12     7    13
 -0.0096762529     1    12     7    16
 0.1088818795     1    12     8     1
 0.0126700993     1    12     8     2
 0.0108862640     1    12     8     4
 -0.0034074281     1    12     8     6
 0.0061279642     1    12     8     9
 -0.0032303182     1    12     8    10
 0.0074749300     1    12     8    13
 0.0074300169     1    12     8    16
 -0.0054345649     1    12     9     3
 0.0005110017     1    12     9     7
 0.0023926925     1    12     9     8
 0.0041818086     1    12    10     3
 -0.0009966677     1    12    10     7
 -0.0003135622     1    12    10     8
 0.0001988516     1    12    11    14
 -0.7471386027     1    12    12     1
 -0.0253154644     1    12    12     2
 -0.0056221632     1    12    12     4
 0.0103878338     1    12    12     6
 -0.0085386057     1    12    12     9
 0.0058422220     1    12    12    10
 -0.0105530219     1    12    12    13
 -0.0226553836     1    12    12    16
 0.0037347603     1    12    13     3
 -0.0011581671     1    12    13     7
 0.0026096331     1    12    13     8
 0.0059907048     1    12    14     5
 -0.0009172793     1    12    14    11
 0.0065792475     1    12    14    15
 0.0065420358     1    12    15    14
 -0.0024322230     1    12    16     3