&FCI NORB= 12,NELEC= 10,MS2=0,
 ORBSYM=1,1,1,1,1,1,1,1,1,1,1,1
 ISYM=1,
&END
 0.9846230110     1     1     2     2
 -0.0676456183     1     1     2     4
 -0.1241930481     1     1     2     6
 -0.0335750346     1     1     2     9
 0.1069656135     1     1     2    10
 0.0721614028     1     1     2    12
 0.8717358705     1     1     3     3
 -0.1444213417     1     1     3     7
 -0.0746925988     1     1     3     8
 -0.0676456183     1     1     4     2
 0.9524223433     1     1     4     4
 -0.0650821593     1     1     4     6
 0.1610459872     1     1     4     9
 0.1570064987     1     1     4    10
 0.0484177911     1     1     4    12
 1.0003472997     1     1     5     5
 0.2845920553     1     1     5    11
 -0.1241930481     1     1     6     2
 -0.0650821593     1     1     6     4
 0.3152201974     1     1     6     6
 -0.0074402608     1     1     6     9
 -0.1150691443     1     1     6    10
 -0.0618714892     1     1     6    12
 -0.1444213417     1     1     7     3
 0.2836091225     1     1     7     7
 0.0650434466     1     1     7     8
 -0.0746925988     1     1     8     3
 0.0650434466     1     1     8     7
 0.3887831881     1     1     8     8
 -0.0335750346     1     1     9     2
 0.1610459872     1     1     9     4
 -0.0074402608     1     1     9     6
 0.3820781948     1     1     9     9
 0.0348773307     1     1     9    10
 0.0247142216     1     1     9    12
 0.1069656135     1     1    10     2
 0.1570064987     1     1    10     4
 -0.1150691443     1     1    10     6
 0.0348773307     1     1    10     9
 0.4564738815     1     1    10    10
 0.0437092081     1     1    10    12
 0.2845920553     1     1    11     5
 0.5389680468     1     1    11    11
 0.0721614028     1     1    12     2
 0.0484177911     1     1    12     4
 -0.0618714892     1     1    12     6
 0.0247142216     1     1    12     9
 0.0437092081     1     1    12    10
 0.3780171809     1     1    12    12
 -0.9846230110     1     2     2     1
 0.0069582743     1     2     2     4
 -0.0011990754     1     2     2     6
 0.0030632896     1     2     2     9
 0.0035195733     1     2     2    10
 0.0015161379     1     2     2    12
 0.0309647438     1     2     3     3
 -0.0107995365     1     2     3     7
 -0.0086500344     1     2     3     8
 0.0676456183     1     2     4     1
 0.0359076168     1     2     4     4
 -0.0062577630     1     2     4     6
 0.0115823189     1     2     4     9
 0.0148757542     1     2     4    10
 0.0063794044     1     2     4    12
 0.0409245285     1     2     5     5
 0.0239088760     1     2     5    11
 0.1241930481     1     2     6     1
 -0.0060464114     1     2     6     4
 0.0013957416     1     2     6     6
 -0.0021958794     1     2     6     9
 -0.0032964813     1     2     6    10
 -0.0014389550     1     2     6    12
 -0.0080115775     1     2     7     3
 0.0034383028     1     2     7     7
 0.0026967323     1     2     7     8
 -0.0057674738     1     2     8     3
 0.0023762252     1     2     8     7
 0.0019882344     1     2     8     8
 0.0335750346     1     2     9     1
 0.0085043117     1     2     9     4
 -0.0014974493     1     2     9     6
 0.0040092140     1     2     9     9
 0.0047083349     1     2     9    10
 0.0014776737     1     2     9    12
 -0.1069656135     1     2    10     1
 0.0122331493     1     2    10     4
 -0.0027182464     1     2    10     6
 0.0053642649     1     2    10     9
 0.0064755255     1     2    10    10
 0.0026162462     1     2    10    12
 0.0175617074     1     2    11     5
 0.0137464175     1     2    11    11
 -0.0721614028     1     2    12     1
 0.0048215154     1     2    12     4
 -0.0010727063     1     2    12     6
 0.0015924202     1     2    12     9
 0.0023708904     1     2    12    10
 0.0008779826     1     2    12    12
 -0.0021162503     1     3     2     7
 -0.0024189433     1     3     2     8
 -0.8717358705     1     3     3     1
 -0.0309647438     1     3     3     2
 0.0105647674     1     3     3     4
 0.0042035039     1     3     3     6
 0.0028811363     1     3     3     9
 0.0006221270     1     3     3    10
 -0.0042844320     1     3     3    12
 -0.0010112055     1     3     4     7
 -0.0040485347     1     3     4     8
 -0.0018641282     1     3     6     7
 0.0004317036     1     3     6     8
 0.1444213417     1     3     7     1
 0.0080115775     1     3     7     2
 -0.0028461096     1     3     7     4
 -0.0036442362     1     3     7     6
 -0.0012731809     1     3     7     9
 0.0019319966     1     3     7    10
 0.0011716078     1     3     7    12
 0.0746925988     1     3     8     1
 0.0057674738     1     3     8     2
 -0.0018454730     1     3     8     4
 -0.0017481832     1     3     8     6
 0.0010332477     1     3     8     9
 0.0040404058     1     3     8    10
 0.0027062880     1     3     8    12
 -0.0009128535     1     3     9     7
 0.0000297651     1     3     9     8
 0.0014275903     1     3    10     7
 0.0018243369     1     3    10     8
 -0.0006546534     1     3    12     7
 0.0005979912     1     3    12     8
 0.0676456183     1     4     2     1
 -0.0069582743     1     4     2     2
 0.0002821595     1     4     2     6
 0.0023127692     1     4     2     9
 0.0016476467     1     4     2    10
 0.0011464030     1     4     2    12
 -0.0105647674     1     4     3     3
 0.0019916851     1     4     3     7
 -0.0021479178     1     4     3     8
 -0.9524223433     1     4     4     1
 -0.0359076168     1     4     4     2
 0.0082080566     1     4     4     6
 0.0006889667     1     4     4     9
 -0.0102158115     1     4     4    10
 -0.0020538936     1     4     4    12
 -0.0137188111     1     4     5     5
 -0.0076966772     1     4     5    11
 0.0650821593     1     4     6     1
 0.0060464114     1     4     6     2
 -0.0032885676     1     4     6     6
 0.0014285668     1     4     6     9
 0.0035797571     1     4     6    10
 0.0014491582     1     4     6    12
 0.0028461096     1     4     7     3
 -0.0021078452     1     4     7     7
 -0.0009577260     1     4     7     8
 0.0018454730     1     4     8     3
 -0.0021748610     1     4     8     7
 -0.0012797223     1     4     8     8
 -0.1610459872     1     4     9     1
 -0.0085043117     1     4     9     2
 0.0042308700     1     4     9     6
 0.0010051909     1     4     9     9
 -0.0019016100     1     4     9    10
 -0.0032103516     1     4     9    12
 -0.1570064987     1     4    10     1
 -0.0122331493     1     4    10     2
 0.0052154525     1     4    10     6
 0.0017568655     1     4    10     9
 -0.0068280568     1     4    10    10
 -0.0030702961     1     4    10    12
 -0.0062351034     1     4    11     5
 -0.0045463789     1     4    11    11
 -0.0484177911     1     4    12     1
 -0.0048215154     1     4    12     2
 0.0026176423     1     4    12     6
 -0.0025103078     1     4    12     9
 -0.0041415599     1     4    12    10
 -0.0032046989     1     4    12    12
 0.0048429318     1     5     2    11
 -0.0010927709     1     5     4    11
 -1.0003472997     1     5     5     1
 -0.0409245285     1     5     5     2
 0.0137188111     1     5     5     4
 0.0078616730     1     5     5     6
 0.0075188718     1     5     5     9
 -0.0081366173     1     5     5    10
 -0.0061427888     1     5     5    12
 0.0021622319     1     5     6    11
 -0.0014102241     1     5     9    11
 0.0011758036     1     5    10    11
 -0.2845920553     1     5    11     1
 -0.0175617074     1     5    11     2
 0.0062351034     1     5    11     4
 0.0069604747     1     5    11     6
 0.0029788728     1     5    11     9
 -0.0039867499     1     5    11    10
 -0.0032863291     1     5    11    12
 0.0004991960     1     5    12    11
 0.1241930481     1     6     2     1
 0.0011990754     1     6     2     2
 -0.0002821595     1     6     2     4
 -0.0006917615     1     6     2     9
 -0.0006112718     1     6     2    10
 -0.0003772741     1     6     2    12
 -0.0042035039     1     6     3     3
 0.0017990831     1     6     3     7
 0.0021902083     1     6     3     8
 0.0650821593     1     6     4     1
 0.0062577630     1     6     4     2
 -0.0082080566     1     6     4     4
 -0.0027774703     1     6     4     9
 -0.0016765985     1     6     4    10
 -0.0011641053     1     6     4    12
 -0.0078616730     1     6     5     5
 -0.0046904789     1     6     5    11
 -0.3152201974     1     6     6     1
 -0.0013957416     1     6     6     2
 0.0032885676     1     6     6     4
 0.0008496256     1     6     6     9
 0.0008122075     1     6     6    10
 0.0003316786     1     6     6    12
 0.0036442362     1     6     7     3
 -0.0011674515     1     6     7     7
 -0.0009984398     1     6     7     8
 0.0017481832     1     6     8     3
 -0.0003730023     1     6     8     7
 -0.0003344735     1     6     8     8
 0.0074402608     1     6     9     1
 0.0014974493     1     6     9     2
 -0.0042308700     1     6     9     4
 -0.0017666691     1     6     9     9
 -0.0016914246     1     6     9    10
 -0.0001283629     1     6     9    12
 0.1150691443     1     6    10     1
 0.0027182464     1     6    10     2
 -0.0052154525     1     6    10     4
 -0.0022909331     1     6    10     9
 -0.0010727367     1     6    10    10
 -0.0003758603     1     6    10    12
 -0.0069604747     1     6    11     5
 -0.0045600625     1     6    11    11
 0.0618714892     1     6    12     1
 0.0010727063     1     6    12     2
 -0.0026176423     1     6    12     4
 -0.0003875419     1     6    12     9
 -0.0003816935     1     6    12    10
 0.0002008854     1     6    12    12
 0.0021162503     1     7     2     3
 0.0003135819     1     7     2     8
 0.1444213417     1     7     3     1
 0.0107995365     1     7     3     2
 -0.0019916851     1     7     3     4
 -0.0017990831     1     7     3     6
 -0.0004224233     1     7     3     9
 0.0004778676     1     7     3    10
 0.0018249049     1     7     3    12
 0.0010112055     1     7     4     3
 0.0012224523     1     7     4     8
 0.0018641282     1     7     6     3
 -0.0006259054     1     7     6     8
 -0.2836091225     1     7     7     1
 -0.0034383028     1     7     7     2
 0.0021078452     1     7     7     4
 0.0011674515     1     7     7     6
 0.0008009137     1     7     7     9
 -0.0003368714     1     7     7    10
 -0.0002948542     1     7     7    12
 -0.0650434466     1     7     8     1
 -0.0023762252     1     7     8     2
 0.0021748610     1     7     8     4
 0.0003730023     1     7     8     6
 0.0001343395     1     7     8     9
 -0.0008177970     1     7     8    10
 -0.0007294446     1     7     8    12
 0.0009128535     1     7     9     3
 -0.0002561563     1     7     9     8
 -0.0014275903     1     7    10     3
 -0.0002827892     1     7    10     8
 0.0006546534     1     7    12     3
 -0.0003830188     1     7    12     8
 0.0024189433     1     8     2     3
 -0.0003135819     1     8     2     7
 0.0746925988     1     8     3     1
 0.0086500344     1     8     3     2
 0.0021479178     1     8     3     4
 -0.0021902083     1     8     3     6
 0.0009210602     1     8     3     9
 0.0022053760     1     8     3    10
 0.0020945751     1     8     3    12
 0.0040485347     1     8     4     3
 -0.0012224523     1     8     4     7
 -0.0004317036     1     8     6     3
 0.0006259054     1     8     6     7
 -0.0650434466     1     8     7     1
 -0.0026967323     1     8     7     2
 0.0009577260     1     8     7     4
 0.0009984398     1     8     7     6
 0.0003899619     1     8     7     9
 -0.0005363659     1     8     7    10
 -0.0003477295     1     8     7    12
 -0.3887831881     1     8     8     1
 -0.0019882344     1     8     8     2
 0.0012797223     1     8     8     4
 0.0003344735     1     8     8     6
 -0.0000285859     1     8     8     9
 -0.0007723207     1     8     8    10
 -0.0005826908     1     8     8    12
 -0.0000297651     1     8     9     3
 0.0002561563     1     8     9     7
 -0.0018243369     1     8    10     3
 0.0002827892     1     8    10     7
 -0.0005979912     1     8    12     3
 0.0003830188     1     8    12     7
 0.0335750346     1     9     2     1
 -0.0030632896     1     9     2     2
 -0.0023127692     1     9     2     4
 0.0006917615     1     9     2     6
 -0.0006745012     1     9     2    10
 -0.0001299543     1     9     2    12
 -0.0028811363     1     9     3     3
 0.0004224233     1     9     3     7
 -0.0009210602     1     9     3     8
 -0.1610459872     1     9     4     1
 -0.0115823189     1     9     4     2
 -0.0006889667     1     9     4     4
 0.0027774703     1     9     4     6
 -0.0036191608     1     9     4    10
 -0.0006870974     1     9     4    12
 -0.0075188718     1     9     5     5
 -0.0043726603     1     9     5    11
 0.0074402608     1     9     6     1
 0.0021958794     1     9     6     2
 -0.0014285668     1     9     6     4
 -0.0008496256     1     9     6     6
 0.0006014601     1     9     6    10
 0.0002600697     1     9     6    12
 0.0012731809     1     9     7     3
 -0.0008009137     1     9     7     7
 -0.0003899619     1     9     7     8
 -0.0010332477     1     9     8     3
 -0.0001343395     1     9     8     7
 0.0000285859     1     9     8     8
 -0.3820781948     1     9     9     1
 -0.0040092140     1     9     9     2
 -0.0010051909     1     9     9     4
 0.0017666691     1     9     9     6
 -0.0012839684     1     9     9    10
 -0.0013759074     1     9     9    12
 -0.0348773307     1     9    10     1
 -0.0053642649     1     9    10     2
 -0.0017568655     1     9    10     4
 0.0022909331     1     9    10     6
 -0.0033009742     1     9    10    10
 -0.0014773630     1     9    10    12
 -0.0029788728     1     9    11     5
 -0.0019891393     1     9    11    11
 -0.0247142216     1     9    12     1
 -0.0015924202     1     9    12     2
 0.0025103078     1     9    12     4
 0.0003875419     1     9    12     6
 -0.0002847824     1     9    12    10
 -0.0006241309     1     9    12    12
 -0.1069656135     1    10     2     1
 -0.0035195733     1    10     2     2
 -0.0016476467     1    10     2     4
 0.0006112718     1    10     2     6
 0.0006745012     1    10     2     9
 0.0002287664     1    10     2    12
 -0.0006221270     1    10     3     3
 -0.0004778676     1    10     3     7
 -0.0022053760     1    10     3     8
 -0.1570064987     1    10     4     1
 -0.0148757542     1    10     4     2
 0.0102158115     1    10     4     4
 0.0016765985     1    10     4     6
 0.0036191608     1    10     4     9
 0.0010291702     1    10     4    12
 0.0081366173     1    10     5     5
 0.0049741923     1    10     5    11
 0.1150691443     1    10     6     1
 0.0032964813     1    10     6     2
 -0.0035797571     1    10     6     4
 -0.0008122075     1    10     6     6
 -0.0006014601     1    10     6     9
 0.0000052047     1    10     6    12
 -0.0019319966     1    10     7     3
 0.0003368714     1    10     7     7
 0.0005363659     1    10     7     8
 -0.0040404058     1    10     8     3
 0.0008177970     1    10     8     7
 0.0007723207     1    10     8     8
 -0.0348773307     1    10     9     1
 -0.0047083349     1    10     9     2
 0.0019016100     1    10     9     4
 0.0016914246     1    10     9     6
 0.0012839684     1    10     9     9
 -0.0011912182     1    10     9    12
 -0.4564738815     1    10    10     1
 -0.0064755255     1    10    10     2
 0.0068280568     1    10    10     4
 0.0010727367     1    10    10     6
 0.0033009742     1    10    10     9
 -0.0001597710     1    10    10    12
 0.0039867499     1    10    11     5
 0.0027162512     1    10    11    11
 -0.0437092081     1    10    12     1
 -0.0023708904     1    10    12     2
 0.0041415599     1    10    12     4
 0.0003816935     1    10    12     6
 0.0002847824     1    10    12     9
 -0.0007283975     1    10    12    12
 -0.0048429318     1    11     2     5
 0.0010927709     1    11     4     5
 -0.2845920553     1    11     5     1
 -0.0239088760     1    11     5     2
 0.0076966772     1    11     5     4
 0.0046904789     1    11     5     6
 0.0043726603     1    11     5     9
 -0.0049741923     1    11     5    10
 -0.0037092792     1    11     5    12
 -0.0021622319     1    11     6     5
 0.0014102241     1    11     9     5
 -0.0011758036     1    11    10     5
 -0.5389680468     1    11    11     1
 -0.0137464175     1    11    11     2
 0.0045463789     1    11    11     4
 0.0045600625     1    11    11     6
 0.0019891393     1    11    11     9
 -0.0027162512     1    11    11    10
 -0.0022195395     1    11    11    12
 -0.0004991960     1    11    12     5
 -0.0721614028     1    12     2     1
 -0.0015161379     1    12     2     2
 -0.0011464030     1    12     2     4
 0.0003772741     1    12     2     6
 0.0001299543     1    12     2     9
 -0.0002287664     1    12     2    10
 0.0042844320     1    12     3     3
 -0.0018249049     1    12     3     7
 -0.0020945751     1    12     3     8
 -0.0484177911     1    12     4     1
 -0.0063794044     1    12     4     2
 0.0020538936     1    12     4     4
 0.0011641053     1    12     4     6
 0.0006870974     1    12     4     9
 -0.0010291702     1    12     4    10
 0.0061427888     1    12     5     5
 0.0037092792     1    12     5    11
 0.0618714892     1    12     6     1
 0.0014389550     1    12     6     2
 -0.0014491582     1    12     6     4
 -0.0003316786     1    12     6     6
 -0.0002600697     1    12     6     9
 -0.0000052047     1    12     6    10
 -0.0011716078     1    12     7     3
 0.0002948542     1    12     7     7
 0.0003477295     1    12     7     8
 -0.0027062880     1    12     8     3
 0.0007294446     1    12     8     7
 0.0005826908     1    12     8     8
 -0.0247142216     1    12     9     1
 -0.0014776737     1    12     9     2
 0.0032103516     1    12     9     4
 0.0001283629     1    12     9     6
 0.0013759074     1    12     9     9
 0.0011912182     1    12     9    10
 -0.0437092081     1    12    10     1
 -0.0026162462     1    12    10     2
 0.0030702961     1    12    10     4
 0.0003758603     1    12    10     6
 0.0014773630     1    12    10     9
 0.0001597710     1    12    10    10
 0.0032863291     1    12    11     5
 0.0022195395     1    12    11    11
 -0.3780171809     1    12    12     1
 -0.0008779826     1    12    12     2
 0.0032046989     1    12    12     4
 -0.0002008854     1    12    12     6
 0.0006241309     1    12    12     9
 0.0007283975     1    12    12    10
 -0.9846230110     2     1     1     2
 0.0676456183     2     1     1     4
 0.1241930481     2     1     1     6
 0.0335750346     2     1     1     9
 -0.1069656135     2     1     1    10
 -0.0721614028     2     1     1    12
 0.0309647438     2     1     3     3
 -0.0080115775     2     1     3     7
 -0.0057674738     2     1     3     8
 0.0069582743     2     1     4     2
 0.0359076168     2     1     4     4
 -0.0060464114     2     1     4     6
 0.0085043117     2     1     4     9
 0.0122331493     2     1     4    10
 0.0048215154     2     1     4    12
 0.0409245285     2     1     5     5
 0.0175617074     2     1     5    11
 -0.0011990754     2     1     6     2
 -0.0062577630     2     1     6     4
 0.0013957416     2     1     6     6
 -0.0014974493     2     1     6     9
 -0.0027182464     2     1     6    10
 -0.0010727063     2     1     6    12
 -0.0107995365     2     1     7     3
 0.0034383028     2     1     7     7
 0.0023762252     2     1     7     8
 -0.0086500344     2     1     8     3
 0.0026967323     2     1     8     7
 0.0019882344     2     1     8     8
 0.0030632896     2     1     9     2
 0.0115823189     2     1     9     4
 -0.0021958794     2     1     9     6
 0.0040092140     2     1     9     9
 0.0053642649     2     1     9    10
 0.0015924202     2     1     9    12
 0.0035195733     2     1    10     2
 0.0148757542     2     1    10     4
 -0.0032964813     2     1    10     6
 0.0047083349     2     1    10     9
 0.0064755255     2     1    10    10
 0.0023708904     2     1    10    12
 0.0239088760     2     1    11     5
 0.0137464175     2     1    11    11
 0.0015161379     2     1    12     2
 0.0063794044     2     1    12     4
 -0.0014389550     2     1    12     6
 0.0014776737     2     1    12     9
 0.0026162462     2     1    12    10
 0.0008779826     2     1    12    12
 0.9846230110     2     2     1     1
 -0.0069582743     2     2     1     4
 0.0011990754     2     2     1     6
 -0.0030632896     2     2     1     9
 -0.0035195733     2     2     1    10
 -0.0015161379     2     2     1    12
 0.5285682275     2     2     3     3
 -0.0598212554     2     2     3     7
 -0.0146899215     2     2     3     8
 -0.0069582743     2     2     4     1
 0.5511759885     2     2     4     4
 -0.0283412037     2     2     4     6
 0.0655948455     2     2     4     9
 0.0598672270     2     2     4    10
 0.0102730652     2     2     4    12
 0.5788098843     2     2     5     5
 0.1117027258     2     2     5    11
 0.0011990754     2     2     6     1
 -0.0283412037     2     2     6     4
 0.2796095229     2     2     6     6
 -0.0081605252     2     2     6     9
 -0.0681244314     2     2     6    10
 -0.0357317434     2     2     6    12
 -0.0598212554     2     2     7     3
 0.2555588184     2     2     7     7
 0.0428906488     2     2     7     8
 -0.0146899215     2     2     8     3
 0.0428906488     2     2     8     7
 0.3578091050     2     2     8     8
 -0.0030632896     2     2     9     1
 0.0655948455     2     2     9     4
 -0.0081605252     2     2     9     6
 0.3319789502     2     2     9     9
 -0.0013363541     2     2     9    10
 0.0243388919     2     2     9    12
 -0.0035195733     2     2    10     1
 0.0598672270     2     2    10     4
 -0.0681244314     2     2    10     6
 -0.0013363541     2     2    10     9
 0.3777270785     2     2    10    10
 0.0129103269     2     2    10    12
 0.1117027258     2     2    11     5
 0.4083034155     2     2    11    11
 -0.0015161379     2     2    12     1
 0.0102730652     2     2    12     4
 -0.0357317434     2     2    12     6
 0.0243388919     2     2    12     9
 0.0129103269     2     2    12    10
 0.3565114310     2     2    12    12
 0.0021162503     2     3     1     7
 0.0024189433     2     3     1     8
 -0.0309647438     2     3     3     1
 -0.5285682275     2     3     3     2
 0.0020425379     2     3     3     4
 0.0575490835     2     3     3     6
 0.0210830443     2     3     3     9
 -0.0642672660     2     3     3    10
 -0.0139703417     2     3     3    12
 0.0080777916     2     3     4     7
 0.0274900201     2     3     4     8
 0.0298071291     2     3     6     7
 -0.0004461345     2     3     6     8
 0.0107995365     2     3     7     1
 0.0598212554     2     3     7     2
 0.0004919686     2     3     7     4
 0.0187481302     2     3     7     6
 0.0012994767     2     3     7     9
 -0.0038922980     2     3     7    10
 0.0103688179     2     3     7    12
 0.0086500344     2     3     8     1
 0.0146899215     2     3     8     2
 0.0041954136     2     3     8     4
 -0.0022951325     2     3     8     6
 -0.0152656331     2     3     8     9
 -0.0277118728     2     3     8    10
 -0.0144312732     2     3     8    12
 0.0055658289     2     3     9     7
 -0.0119286911     2     3     9     8
 -0.0158602590     2     3    10     7
 -0.0267630108     2     3    10     8
 0.0055035049     2     3    12     7
 -0.0184198008     2     3    12     8
 -0.0676456183     2     4     1     1
 0.0069582743     2     4     1     2
 -0.0002821595     2     4     1     6
 -0.0023127692     2     4     1     9
 -0.0016476467     2     4     1    10
 -0.0011464030     2     4     1    12
 -0.0020425379     2     4     3     3
 0.0074983147     2     4     3     7
 0.0229294047     2     4     3     8
 -0.0359076168     2     4     4     1
 -0.5511759885     2     4     4     2
 0.0571986157     2     4     4     6
 0.0058258344     2     4     4     9
 -0.0422499707     2     4     4    10
 -0.0510421578     2     4     4    12
 -0.0042546434     2     4     5     5
 -0.0052112030     2     4     5    11
 0.0062577630     2     4     6     1
 0.0283412037     2     4     6     2
 0.0092155886     2     4     6     6
 -0.0197466471     2     4     6     9
 -0.0075731736     2     4     6    10
 -0.0015730625     2     4     6    12
 -0.0004919686     2     4     7     3
 0.0112421334     2     4     7     7
 0.0055000485     2     4     7     8
 -0.0041954136     2     4     8     3
 0.0095687703     2     4     8     7
 -0.0009313906     2     4     8     8
 -0.0115823189     2     4     9     1
 -0.0655948455     2     4     9     2
 -0.0070746419     2     4     9     6
 -0.0100049389     2     4     9     9
 -0.0239545577     2     4     9    10
 0.0130561936     2     4     9    12
 -0.0148757542     2     4    10     1
 -0.0598672270     2     4    10     2
 -0.0006912386     2     4    10     6
 -0.0114926377     2     4    10     9
 0.0091785413     2     4    10    10
 0.0049471765     2     4    10    12
 -0.0036042599     2     4    11     5
 -0.0092602109     2     4    11    11
 -0.0063794044     2     4    12     1
 -0.0102730652     2     4    12     2
 -0.0038288063     2     4    12     6
 0.0234237936     2     4    12     9
 0.0104879100     2     4    12    10
 0.0151385146     2     4    12    12
 -0.0048429318     2     5     1    11
 -0.0016487232     2     5     4    11
 -0.0409245285     2     5     5     1
 -0.5788098843     2     5     5     2
 0.0042546434     2     5     5     4
 0.0552544921     2     5     5     6
 -0.0003192210     2     5     5     9
 -0.0319961944     2     5     5    10
 -0.0212189248     2     5     5    12
 -0.0232560953     2     5     6    11
 0.0073871859     2     5     9    11
 -0.0027323934     2     5    10    11
 -0.0239088760     2     5    11     1
 -0.1117027258     2     5    11     2
 0.0036042599     2     5    11     4
 -0.0035186253     2     5    11     6
 0.0098780213     2     5    11     9
 -0.0182098179     2     5    11    10
 -0.0103236912     2     5    11    12
 0.0000190485     2     5    12    11
 -0.1241930481     2     6     1     1
 -0.0011990754     2     6     1     2
 0.0002821595     2     6     1     4
 0.0006917615     2     6     1     9
 0.0006112718     2     6     1    10
 0.0003772741     2     6     1    12
 -0.0575490835     2     6     3     3
 0.0106431580     2     6     3     7
 0.0014719958     2     6     3     8
 0.0060464114     2     6     4     1
 0.0283412037     2     6     4     2
 -0.0571986157     2     6     4     4
 -0.0121186582     2     6     4     9
 -0.0064832701     2     6     4    10
 0.0020972164     2     6     4    12
 -0.0552544921     2     6     5     5
 -0.0188240703     2     6     5    11
 -0.0013957416     2     6     6     1
 -0.2796095229     2     6     6     2
 -0.0092155886     2     6     6     4
 0.0016852549     2     6     6     9
 0.0051142593     2     6     6    10
 0.0038031800     2     6     6    12
 -0.0187481302     2     6     7     3
 -0.0055559608     2     6     7     7
 -0.0080128227     2     6     7     8
 0.0022951325     2     6     8     3
 -0.0045585709     2     6     8     7
 -0.0180826847     2     6     8     8
 0.0021958794     2     6     9     1
 0.0081605252     2     6     9     2
 0.0070746419     2     6     9     4
 -0.0138158086     2     6     9     9
 0.0009451385     2     6     9    10
 -0.0050079271     2     6     9    12
 0.0032964813     2     6    10     1
 0.0681244314     2     6    10     2
 0.0006912386     2     6    10     4
 -0.0003122707     2     6    10     9
 -0.0146535013     2     6    10    10
 0.0004333236     2     6    10    12
 0.0035186253     2     6    11     5
 -0.0233408879     2     6    11    11
 0.0014389550     2     6    12     1
 0.0357317434     2     6    12     2
 0.0038288063     2     6    12     4
 -0.0030737919     2     6    12     9
 0.0012711742     2     6    12    10
 -0.0153801970     2     6    12    12
 -0.0021162503     2     7     1     3
 -0.0003135819     2     7     1     8
 0.0080115775     2     7     3     1
 0.0598212554     2     7     3     2
 -0.0074983147     2     7     3     4
 -0.0106431580     2     7     3     6
 -0.0041461805     2     7     3     9
 0.0113169880     2     7     3    10
 0.0046240444     2     7     3    12
 -0.0080777916     2     7     4     3
 -0.0039623891     2     7     4     8
 -0.0298071291     2     7     6     3
 -0.0034623511     2     7     6     8
 -0.0034383028     2     7     7     1
 -0.2555588184     2     7     7     2
 -0.0112421334     2     7     7     4
 0.0055559608     2     7     7     6
 -0.0005914835     2     7     7     9
 0.0007663456     2     7     7    10
 -0.0014271660     2     7     7    12
 -0.0026967323     2     7     8     1
 -0.0428906488     2     7     8     2
 -0.0095687703     2     7     8     4
 0.0045585709     2     7     8     6
 0.0015540651     2     7     8     9
 -0.0014648161     2     7     8    10
 0.0004004665     2     7     8    12
 -0.0055658289     2     7     9     3
 0.0018367564     2     7     9     8
 0.0158602590     2     7    10     3
 0.0037324440     2     7    10     8
 -0.0055035049     2     7    12     3
 0.0011575976     2     7    12     8
 -0.0024189433     2     8     1     3
 0.0003135819     2     8     1     7
 0.0057674738     2     8     3     1
 0.0146899215     2     8     3     2
 -0.0229294047     2     8     3     4
 -0.0014719958     2     8     3     6
 -0.0028546963     2     8     3     9
 -0.0012935937     2     8     3    10
 0.0037597698     2     8     3    12
 -0.0274900201     2     8     4     3
 0.0039623891     2     8     4     7
 0.0004461345     2     8     6     3
 0.0034623511     2     8     6     7