&FCI NORB= 14,NELEC= 10,MS2=0,
 ORBSYM=1,1,1,1,1,1,1,1,1,1,1,1,1,1
 ISYM=1,
&END
 0.9974744854     1     1     2     2
 -0.0405647885     1     1     2     3
 0.0675758240     1     1     2     4
 -0.1080514020     1     1     2     6
 0.0785780757     1     1     2     7
 0.0318603208     1     1     2     8
 0.0670658620     1     1     2     9
 0.0313171334     1     1     2    10
 -0.0581882883     1     1     2    12
 -0.0822985205     1     1     2    13
 -0.0405647885     1     1     3     2
 0.8766472599     1     1     3     3
 -0.0800441128     1     1     3     4
 0.0807750651     1     1     3     6
 0.1366452038     1     1     3     7
 -0.0407281490     1     1     3     8
 0.0032283764     1     1     3     9
 0.2001759447     1     1     3    10
 0.0382276883     1     1     3    12
 -0.1260476234     1     1     3    13
 0.0675758240     1     1     4     2
 -0.0800441128     1     1     4     3
 0.8152301748     1     1     4     4
 0.2195099064     1     1     4     6
 0.0524682230     1     1     4     7
 -0.0913516989     1     1     4     8
 0.0459332874     1     1     4     9
 -0.1562158124     1     1     4    10
 0.0580626817     1     1     4    12
 -0.1514993789     1     1     4    13
 1.0108340125     1     1     5     5
 -0.2267393870     1     1     5    11
 0.1912474447     1     1     5    14
 -0.1080514020     1     1     6     2
 0.0807750651     1     1     6     3
 0.2195099064     1     1     6     4
 0.4513457435     1     1     6     6
 0.0343533144     1     1     6     7
 -0.1415353245     1     1     6     8
 -0.0044670508     1     1     6     9
 -0.0532431010     1     1     6    10
 0.0831272530     1     1     6    12
 -0.0992339189     1     1     6    13
 0.0785780757     1     1     7     2
 0.1366452038     1     1     7     3
 0.0524682230     1     1     7     4
 0.0343533144     1     1     7     6
 0.3125286584     1     1     7     7
 -0.0502259875     1     1     7     8
 0.0480577606     1     1     7     9
 0.0891618269     1     1     7    10
 0.0046891204     1     1     7    12
 -0.1292942477     1     1     7    13
 0.0318603208     1     1     8     2
 -0.0407281490     1     1     8     3
 -0.0913516989     1     1     8     4
 -0.1415353245     1     1     8     6
 -0.0502259875     1     1     8     7
 0.3137762279     1     1     8     8
 -0.0120059570     1     1     8     9
 0.0150357570     1     1     8    10
 -0.0184509151     1     1     8    12
 0.0431562045     1     1     8    13
 0.0670658620     1     1     9     2
 0.0032283764     1     1     9     3
 0.0459332874     1     1     9     4
 -0.0044670508     1     1     9     6
 0.0480577606     1     1     9     7
 -0.0120059570     1     1     9     8
 0.3600330065     1     1     9     9
 0.0189140529     1     1     9    10
 -0.0063013516     1     1     9    12
 -0.0483499793     1     1     9    13
 0.0313171334     1     1    10     2
 0.2001759447     1     1    10     3
 -0.1562158124     1     1    10     4
 -0.0532431010     1     1    10     6
 0.0891618269     1     1    10     7
 0.0150357570     1     1    10     8
 0.0189140529     1     1    10     9
 0.4917868674     1     1    10    10
 -0.0242736806     1     1    10    12
 -0.0150065257     1     1    10    13
 -0.2267393870     1     1    11     5
 0.4312702371     1     1    11    11
 -0.1068196484     1     1    11    14
 -0.0581882883     1     1    12     2
 0.0382276883     1     1    12     3
 0.0580626817     1     1    12     4
 0.0831272530     1     1    12     6
 0.0046891204     1     1    12     7
 -0.0184509151     1     1    12     8
 -0.0063013516     1     1    12     9
 -0.0242736806     1     1    12    10
 0.3591599196     1     1    12    12
 -0.0357713942     1     1    12    13
 -0.0822985205     1     1    13     2
 -0.1260476234     1     1    13     3
 -0.1514993789     1     1    13     4
 -0.0992339189     1     1    13     6
 -0.1292942477     1     1    13     7
 0.0431562045     1     1    13     8
 -0.0483499793     1     1    13     9
 -0.0150065257     1     1    13    10
 -0.0357713942     1     1    13    12
 0.4727961366     1     1    13    13
 0.1912474447     1     1    14     5
 -0.1068196484     1     1    14    11
 0.4273225011     1     1    14    14
 -0.9974744854     1     2     2     1
 -0.0055606128     1     2     2     3
 0.0020082359     1     2     2     4
 -0.0001593215     1     2     2     6
 -0.0018375755     1     2     2     7
 0.0002571742     1     2     2     8
 -0.0002083373     1     2     2     9
 -0.0044232799     1     2     2    10
 -0.0001454141     1     2     2    12
 0.0019000526     1     2     2    13
 0.0405647885     1     2     3     1
 -0.0322397917     1     2     3     3
 0.0047891294     1     2     3     4
 -0.0042323077     1     2     3     6
 -0.0104568565     1     2     3     7
 0.0033312780     1     2     3     8
 -0.0025551408     1     2     3     9
 -0.0178623935     1     2     3    10
 -0.0021167888     1     2     3    12
 0.0122054289     1     2     3    13
 -0.0675758240     1     2     4     1
 0.0042105927     1     2     4     3
 -0.0291210413     1     2     4     4
 -0.0149487278     1     2     4     6
 -0.0025927318     1     2     4     7
 0.0078591581     1     2     4     8
 -0.0025918140     1     2     4     9
 0.0124294988     1     2     4    10
 -0.0062470178     1     2     4    12
 0.0115386322     1     2     4    13
 -0.0429283699     1     2     5     5
 0.0186675863     1     2     5    11
 -0.0168307975     1     2     5    14
 0.1080514020     1     2     6     1
 -0.0028643762     1     2     6     3
 -0.0129103058     1     2     6     4
 -0.0097932177     1     2     6     6
 -0.0034980641     1     2     6     7
 0.0053458009     1     2     6     8
 -0.0017400628     1     2     6     9
 0.0037988836     1     2     6    10
 -0.0040588738     1     2     6    12
 0.0088932826     1     2     6    13
 -0.0785780757     1     2     7     1
 -0.0087061626     1     2     7     3
 -0.0018783152     1     2     7     4
 -0.0036324662     1     2     7     6
 -0.0037683363     1     2     7     7
 0.0022669127     1     2     7     8
 -0.0011648909     1     2     7     9
 -0.0042567640     1     2     7    10
 -0.0014951138     1     2     7    12
 0.0058296649     1     2     7    13
 -0.0318603208     1     2     8     1
 0.0023100693     1     2     8     3
 0.0064314443     1     2     8     4
 0.0051230765     1     2     8     6
 0.0020980689     1     2     8     7
 -0.0029564664     1     2     8     8
 0.0011097055     1     2     8     9
 -0.0015197454     1     2     8    10
 0.0021295533     1     2     8    12
 -0.0049567198     1     2     8    13
 -0.0670658620     1     2     9     1
 -0.0020420970     1     2     9     3
 -0.0018036275     1     2     9     4
 -0.0014908586     1     2     9     6
 -0.0010794869     1     2     9     7
 0.0010192131     1     2     9     8
 -0.0005376904     1     2     9     9
 0.0000845722     1     2     9    10
 -0.0005238806     1     2     9    12
 0.0017707662     1     2     9    13
 -0.0313171334     1     2    10     1
 -0.0132671549     1     2    10     3
 0.0098223954     1     2    10     4
 0.0028978426     1     2    10     6
 -0.0036052879     1     2    10     7
 -0.0011944442     1     2    10     8
 0.0002804711     1     2    10     9
 -0.0122016530     1     2    10    10
 0.0007094654     1     2    10    12
 0.0013916598     1     2    10    13
 0.0141619007     1     2    11     5
 -0.0079387278     1     2    11    11
 0.0068332897     1     2    11    14
 0.0581882883     1     2    12     1
 -0.0012791710     1     2    12     3
 -0.0045142413     1     2    12     4
 -0.0034473845     1     2    12     6
 -0.0012205131     1     2    12     7
 0.0018817850     1     2    12     8
 -0.0005087697     1     2    12     9
 0.0007955168     1     2    12    10
 -0.0014249168     1     2    12    12
 0.0030451993     1     2    12    13
 0.0822985205     1     2    13     1
 0.0091670741     1     2    13     3
 0.0081997824     1     2    13     4
 0.0080124215     1     2    13     6
 0.0052857587     1     2    13     7
 -0.0046718248     1     2    13     8
 0.0017645430     1     2    13     9
 0.0017913267     1     2    13    10
 0.0032634720     1     2    13    12
 -0.0096994185     1     2    13    13
 -0.0122750047     1     2    14     5
 0.0065450931     1     2    14    11
 -0.0056278783     1     2    14    14
 0.0405647885     1     3     2     1
 0.0055606128     1     3     2     2
 0.0005793942     1     3     2     4
 -0.0011911521     1     3     2     6
 -0.0011320353     1     3     2     7
 0.0008614077     1     3     2     8
 -0.0003884122     1     3     2     9
 -0.0036464404     1     3     2    10
 -0.0007326618     1     3     2    12
 0.0023658639     1     3     2    13
 -0.8766472599     1     3     3     1
 0.0322397917     1     3     3     2
 0.0044801879     1     3     3     4
 -0.0037557942     1     3     3     6
 0.0038718036     1     3     3     7
 0.0010825009     1     3     3     8
 0.0003899985     1     3     3     9
 0.0003182300     1     3     3    10
 -0.0022346465     1     3     3    12
 -0.0054710850     1     3     3    13
 0.0800441128     1     3     4     1
 -0.0042105927     1     3     4     2
 0.0059142053     1     3     4     4
 0.0055555557     1     3     4     6
 0.0009267776     1     3     4     7
 -0.0038780252     1     3     4     8
 0.0000491035     1     3     4     9
 -0.0020681259     1     3     4    10
 -0.0001968626     1     3     4    12
 -0.0024933839     1     3     4    13
 0.0099855370     1     3     5     5
 -0.0050046161     1     3     5    11
 0.0015860539     1     3     5    14
 -0.0807750651     1     3     6     1
 0.0028643762     1     3     6     2
 0.0036405822     1     3     6     4
 0.0008972856     1     3     6     6
 0.0000345433     1     3     6     7
 -0.0010444324     1     3     6     8
 0.0007707886     1     3     6     9
 -0.0016992002     1     3     6    10
 -0.0005482163     1     3     6    12
 -0.0011473508     1     3     6    13
 -0.1366452038     1     3     7     1
 0.0087061626     1     3     7     2
 0.0020983639     1     3     7     4
 -0.0018917463     1     3     7     6
 0.0036191442     1     3     7     7
 0.0002732697     1     3     7     8
 0.0012288806     1     3     7     9
 0.0019075925     1     3     7    10
 -0.0005501260     1     3     7    12
 -0.0030841811     1     3     7    13
 0.0407281490     1     3     8     1
 -0.0023100693     1     3     8     2
 -0.0019932131     1     3     8     4
 -0.0001226864     1     3     8     6
 -0.0004242545     1     3     8     7
 -0.0006838234     1     3     8     8
 0.0001974385     1     3     8     9
 -0.0002196706     1     3     8    10
 0.0006624265     1     3     8    12
 0.0006379688     1     3     8    13
 -0.0032283764     1     3     9     1
 0.0020420970     1     3     9     2
 0.0004444267     1     3     9     4
 0.0005502162     1     3     9     6
 0.0015317089     1     3     9     7
 0.0001460261     1     3     9     8
 0.0005442035     1     3     9     9
 0.0037730076     1     3     9    10
 0.0002334420     1     3     9    12
 -0.0035081034     1     3     9    13
 -0.2001759447     1     3    10     1
 0.0132671549     1     3    10     2
 0.0002246871     1     3    10     4
 -0.0046338536     1     3    10     6
 0.0036656914     1     3    10     7
 0.0012866229     1     3    10     8
 0.0038302336     1     3    10     9
 0.0037634245     1     3    10    10
 -0.0032418694     1     3    10    12
 -0.0032571171     1     3    10    13
 -0.0031384376     1     3    11     5
 0.0004365594     1     3    11    11
 -0.0015731767     1     3    11    14
 -0.0382276883     1     3    12     1
 0.0012791710     1     3    12     2
 0.0011215476     1     3    12     4
 0.0006920502     1     3    12     6
 0.0008079383     1     3    12     7
 -0.0004046439     1     3    12     8
 0.0005926608     1     3    12     9
 -0.0024522364     1     3    12    10
 0.0004793857     1     3    12    12
 -0.0017701604     1     3    12    13
 0.1260476234     1     3    13     1
 -0.0091670741     1     3    13     2
 -0.0037564435     1     3    13     4
 0.0008177539     1     3    13     6
 -0.0030030621     1     3    13     7
 0.0003062498     1     3    13     8
 -0.0031100525     1     3    13     9
 -0.0008223136     1     3    13    10
 0.0003687923     1     3    13    12
 0.0049409186     1     3    13    13
 0.0031976084     1     3    14     5
 -0.0030956234     1     3    14    11
 0.0037019100     1     3    14    14
 -0.0675758240     1     4     2     1
 -0.0020082359     1     4     2     2
 -0.0005793942     1     4     2     3
 -0.0011157383     1     4     2     6
 -0.0005909180     1     4     2     7
 0.0009605478     1     4     2     8
 -0.0006493049     1     4     2     9
 0.0018953067     1     4     2    10
 -0.0013995584     1     4     2    12
 0.0027332568     1     4     2    13
 0.0800441128     1     4     3     1
 -0.0047891294     1     4     3     2
 -0.0044801879     1     4     3     3
 0.0017074502     1     4     3     6
 -0.0012869971     1     4     3     7
 -0.0017713172     1     4     3     8
 -0.0003369555     1     4     3     9
 -0.0023042811     1     4     3    10
 -0.0013546327     1     4     3    12
 0.0015277096     1     4     3    13
 -0.8152301748     1     4     4     1
 0.0291210413     1     4     4     2
 -0.0059142053     1     4     4     3
 -0.0054049921     1     4     4     6
 0.0029732681     1     4     4     7
 0.0010905635     1     4     4     8
 0.0048568054     1     4     4     9
 0.0022469182     1     4     4    10
 -0.0021016016     1     4     4    12
 -0.0015206287     1     4     4    13
 -0.0075325553     1     4     5     5
 0.0022138883     1     4     5    11
 -0.0034385935     1     4     5    14
 -0.2195099064     1     4     6     1
 0.0129103058     1     4     6     2
 -0.0036405822     1     4     6     3
 -0.0064255582     1     4     6     6
 0.0003616982     1     4     6     7
 0.0024446643     1     4     6     8
 0.0019992507     1     4     6     9
 0.0016097493     1     4     6    10
 -0.0026746882     1     4     6    12
 0.0012699131     1     4     6    13
 -0.0524682230     1     4     7     1
 0.0018783152     1     4     7     2
 -0.0020983639     1     4     7     3
 -0.0012635666     1     4     7     6
 -0.0008092553     1     4     7     7
 0.0006080722     1     4     7     8
 0.0004098321     1     4     7     9
 -0.0015185676     1     4     7    10
 -0.0005028504     1     4     7    12
 0.0004325158     1     4     7    13
 0.0913516989     1     4     8     1
 -0.0064314443     1     4     8     2
 0.0019932131     1     4     8     3
 0.0035958959     1     4     8     6
 0.0003102348     1     4     8     7
 -0.0032579722     1     4     8     8
 -0.0014071274     1     4     8     9
 0.0000605411     1     4     8    10
 0.0019744211     1     4     8    12
 -0.0012196442     1     4     8    13
 -0.0459332874     1     4     9     1
 0.0018036275     1     4     9     2
 -0.0004444267     1     4     9     3
 -0.0009911137     1     4     9     6
 0.0001949432     1     4     9     7
 -0.0000603824     1     4     9     8
 -0.0008485047     1     4     9     9
 0.0002372786     1     4     9    10
 -0.0018423815     1     4     9    12
 0.0005628870     1     4     9    13
 0.1562158124     1     4    10     1
 -0.0098223954     1     4    10     2
 -0.0002246871     1     4    10     3
 0.0034211512     1     4    10     6
 -0.0028863967     1     4    10     7
 -0.0007118140     1     4    10     8
 -0.0020194959     1     4    10     9
 -0.0015957048     1     4    10    10
 0.0020164563     1     4    10    12
 0.0035758047     1     4    10    13
 0.0031398099     1     4    11     5
 -0.0037040069     1     4    11    11
 0.0007971132     1     4    11    14
 -0.0580626817     1     4    12     1
 0.0045142413     1     4    12     2
 -0.0011215476     1     4    12     3
 -0.0022787852     1     4    12     6
 0.0010330083     1     4    12     7
 0.0011985166     1     4    12     8
 -0.0004510239     1     4    12     9
 0.0026100212     1     4    12    10
 -0.0017473378     1     4    12    12
 -0.0005327912     1     4    12    13
 0.1514993789     1     4    13     1
 -0.0081997824     1     4    13     2
 0.0037564435     1     4    13     3
 0.0035600266     1     4    13     6
 -0.0008883943     1     4    13     7
 -0.0011743157     1     4    13     8
 -0.0013833323     1     4    13     9
 0.0018000536     1     4    13    10
 0.0014834934     1     4    13    12
 0.0014310237     1     4    13    13
 -0.0021074453     1     4    14     5
 -0.0002129974     1     4    14    11
 -0.0016367806     1     4    14    14
 0.0034717462     1     5     2    11
 -0.0036757485     1     5     2    14
 -0.0017044137     1     5     3    11
 -0.0018317217     1     5     3    14
 -0.0011655003     1     5     4    11
 -0.0012213152     1     5     4    14
 -1.0108340125     1     5     5     1
 0.0429283699     1     5     5     2
 -0.0099855370     1     5     5     3
 0.0075325553     1     5     5     4
 -0.0080226582     1     5     5     6
 0.0039018254     1     5     5     7
 0.0036601396     1     5     5     8
 0.0072160381     1     5     5     9
 -0.0004685366     1     5     5    10
 -0.0061361350     1     5     5    12
 -0.0064865313     1     5     5    13
 0.0006757580     1     5     6    11
 -0.0009364501     1     5     6    14
 -0.0009697412     1     5     7    11
 0.0010414854     1     5     7    14
 0.0009135268     1     5     8    11
 -0.0002805059     1     5     8    14
 0.0005526655     1     5     9    11
 -0.0008012186     1     5     9    14
 0.0003025138     1     5    10    11
 -0.0004357135     1     5    10    14
 0.2267393870     1     5    11     1
 -0.0141619007     1     5    11     2
 0.0031384376     1     5    11     3
 -0.0031398099     1     5    11     4
 0.0050169507     1     5    11     6
 -0.0023118320     1     5    11     7
 -0.0011636537     1     5    11     8
 -0.0025057778     1     5    11     9
 0.0003797935     1     5    11    10
 0.0026048168     1     5    11    12
 0.0019568956     1     5    11    13
 -0.0004444027     1     5    12    11
 0.0003721124     1     5    12    14
 -0.0001048240     1     5    13    11
 0.0000330023     1     5    13    14
 -0.1912474447     1     5    14     1
 0.0122750047     1     5    14     2
 -0.0031976084     1     5    14     3
 0.0021074453     1     5    14     4
 -0.0033478144     1     5    14     6
 0.0035075321     1     5    14     7
 0.0006886672     1     5    14     8
 0.0022997710     1     5    14     9
 0.0004360191     1     5    14    10
 -0.0017180413     1     5    14    12
 -0.0038612925     1     5    14    13
 0.1080514020     1     6     2     1
 0.0001593215     1     6     2     2
 0.0011911521     1     6     2     3
 0.0011157383     1     6     2     4
 0.0001393680     1     6     2     7
 0.0002124138     1     6     2     8
 -0.0002353269     1     6     2     9
 0.0009095107     1     6     2    10
 -0.0006013758     1     6     2    12
 0.0008208591     1     6     2    13
 -0.0807750651     1     6     3     1
 0.0042323077     1     6     3     2
 0.0037557942     1     6     3     3
 -0.0017074502     1     6     3     4
 0.0019342194     1     6     3     7
 -0.0009319373     1     6     3     8
 0.0002214803     1     6     3     9
 0.0029698314     1     6     3    10
 -0.0012588073     1     6     3    12
 -0.0019642266     1     6     3    13
 -0.2195099064     1     6     4     1
 0.0149487278     1     6     4     2
 -0.0055555557     1     6     4     3
 0.0054049921     1     6     4     4
 0.0016257089     1     6     4     7
 -0.0011845762     1     6     4     8
 0.0030109731     1     6     4     9
 -0.0018563192     1     6     4    10
 -0.0004042800     1     6     4    12
 -0.0022946946     1     6     4    13
 0.0080226582     1     6     5     5
 -0.0043504903     1     6     5    11
 0.0023874483     1     6     5    14
 -0.4513457435     1     6     6     1
 0.0097932177     1     6     6     2
 -0.0008972856     1     6     6     3
 0.0064255582     1     6     6     4
 0.0017041037     1     6     6     7
 -0.0007567910     1     6     6     8
 0.0020972819     1     6     6     9
 -0.0007150475     1     6     6    10
 -0.0002611498     1     6     6    12
 -0.0030759864     1     6     6    13
 -0.0343533144     1     6     7     1
 0.0036324662     1     6     7     2
 0.0018917463     1     6     7     3
 0.0012635666     1     6     7     4
 0.0016257944     1     6     7     7
 -0.0003103096     1     6     7     8
 0.0009024077     1     6     7     9
 0.0009690064     1     6     7    10
 0.0000616201     1     6     7    12
 -0.0023816191     1     6     7    13
 0.1415353245     1     6     8     1
 -0.0051230765     1     6     8     2
 0.0001226864     1     6     8     3
 -0.0035958959     1     6     8     4
 -0.0008620158     1     6     8     7
 -0.0008341780     1     6     8     8
 -0.0012457148     1     6     8     9
 0.0005454145     1     6     8    10
 0.0004432926     1     6     8    12
 0.0016020014     1     6     8    13
 0.0044670508     1     6     9     1
 0.0014908586     1     6     9     2
 -0.0005502162     1     6     9     3
 0.0009911137     1     6     9     4
 0.0004562113     1     6     9     7
 -0.0002514421     1     6     9     8
 -0.0003041899     1     6     9     9
 0.0003759180     1     6     9    10
 -0.0008373356     1     6     9    12
 -0.0006847088     1     6     9    13
 0.0532431010     1     6    10     1
 -0.0028978426     1     6    10     2
 0.0046338536     1     6    10     3
 -0.0034211512     1     6    10     4
 0.0003450570     1     6    10     7
 0.0002460212     1     6    10     8
 -0.0003577548     1     6    10     9
 0.0037604795     1     6    10    10
 0.0001911594     1     6    10    12
 0.0008132204     1     6    10    13
 -0.0050169507     1     6    11     5
 0.0009648827     1     6    11    11
 -0.0024744944     1     6    11    14
 -0.0831272530     1     6    12     1
 0.0034473845     1     6    12     2
 -0.0006920502     1     6    12     3
 0.0022787852     1     6    12     4
 0.0011017619     1     6    12     7
 -0.0000399189     1     6    12     8
 0.0001033208     1     6    12     9
 0.0003155477     1     6    12    10
 -0.0004606932     1     6    12    12
 -0.0017064958     1     6    12    13
 0.0992339189     1     6    13     1
 -0.0080124215     1     6    13     2
 -0.0008177539     1     6    13     3
 -0.0035600266     1     6    13     4
 -0.0028308042     1     6    13     7
 0.0007221702     1     6    13     8
 -0.0020707646     1     6    13     9
 0.0001194684     1     6    13    10
 0.0000393206     1     6    13    12
 0.0048367181     1     6    13    13
 0.0033478144     1     6    14     5
 -0.0026359863     1     6    14    11
 0.0014611294     1     6    14    14
 -0.0785780757     1     7     2     1
 0.0018375755     1     7     2     2
 0.0011320353     1     7     2     3
 0.0005909180     1     7     2     4
 -0.0001393680     1     7     2     6
 0.0001613609     1     7     2     8
 -0.0000874264     1     7     2     9
 -0.0006515220     1     7     2    10
 -0.0002625623     1     7     2    12
 0.0005213996     1     7     2    13
 -0.1366452038     1     7     3     1
 0.0104568565     1     7     3     2
 -0.0038718036     1     7     3     3
 0.0012869971     1     7     3     4
 -0.0019342194     1     7     3     6
 0.0006986835     1     7     3     8
 -0.0003141814     1     7     3     9
 -0.0018013753     1     7     3    10
 -0.0013683377     1     7     3    12
 -0.0000646622     1     7     3    13
 -0.0524682230     1     7     4     1
 0.0025927318     1     7     4     2
 -0.0009267776     1     7     4     3
 -0.0029732681     1     7     4     4
 -0.0016257089     1     7     4     6
 0.0002923861     1     7     4     8
 0.0002121510     1     7     4     9
 0.0013793990     1     7     4    10
 -0.0015489208     1     7     4    12
 0.0013352147     1     7     4    13
 -0.0039018254     1     7     5     5
 0.0013226384     1     7     5    11
 -0.0024739924     1     7     5    14
 -0.0343533144     1     7     6     1
 0.0034980641     1     7     6     2
 -0.0000345433     1     7     6     3
 -0.0003616982     1     7     6     4
 -0.0017041037     1     7     6     6
 0.0005533000     1     7     6     8
 0.0004452019     1     7     6     9
 0.0006226494     1     7     6    10
 -0.0010416108     1     7     6    12
 0.0004524007     1     7     6    13
 -0.3125286584     1     7     7     1
 0.0037683363     1     7     7     2
 -0.0036191442     1     7     7     3
 0.0008092553     1     7     7     4
 -0.0016257944     1     7     7     6
 0.0007031236     1     7     7     8
 0.0002348053     1     7     7     9
 -0.0011966389     1     7     7    10
 -0.0006295100     1     7     7    12
 0.0005038622     1     7     7    13
 0.0502259875     1     7     8     1
 -0.0020980689     1     7     8     2
 0.0004242545     1     7     8     3
 -0.0003102348     1     7     8     4
 0.0008620158     1     7     8     6
 -0.0009193125     1     7     8     8
 -0.0000711863     1     7     8     9
 -0.0002326706     1     7     8    10
 0.0006941733     1     7     8    12
 -0.0002638358     1     7     8    13
 -0.0480577606     1     7     9     1
 0.0010794869     1     7     9     2
 -0.0015317089     1     7     9     3
 -0.0001949432     1     7     9     4
 -0.0004562113     1     7     9     6
 0.0003743853     1     7     9     8
 -0.0000821546     1     7     9     9
 0.0008095954     1     7     9    10
 -0.0003960453     1     7     9    12
 -0.0003325857     1     7     9    13
 -0.0891618269     1     7    10     1
 0.0036052879     1     7    10     2
 -0.0036656914     1     7    10     3
 0.0028863967     1     7    10     4
 -0.0003450570     1     7    10     6
 0.0000207004     1     7    10     8
 0.0011062112     1     7    10     9
 -0.0018757976     1     7    10    10
 -0.0006288740     1     7    10    12
 -0.0003296262     1     7    10    13
 0.0023118320     1     7    11     5
 -0.0018505868     1     7    11    11
 0.0008563439     1     7    11    14
 -0.0046891204     1     7    12     1
 0.0012205131     1     7    12     2
 -0.0008079383     1     7    12     3
 -0.0010330083     1     7    12     4
 -0.0011017619     1     7    12     6
 0.0005948904     1     7    12     8
 -0.0000370067     1     7    12     9
 -0.0002944745     1     7    12    10
 -0.0004831738     1     7    12    12
 0.0002817494     1     7    12    13
 0.1292942477     1     7    13     1
 -0.0052857587     1     7    13     2
 0.0030030621     1     7    13     3
 0.0008883943     1     7    13     4
 0.0028308042     1     7    13     6
 -0.0012223206     1     7    13     8
 -0.0009063543     1     7    13     9
 0.0002875714     1     7    13    10
 0.0011928770     1     7    13    12
 -0.0003077346     1     7    13    13
 -0.0035075321     1     7    14     5
 0.0009333779     1     7    14    11
 -0.0007076417     1     7    14    14
 -0.0318603208     1     8     2     1
 -0.0002571742     1     8     2     2
 -0.0008614077     1     8     2     3
 -0.0009605478     1     8     2     4
 -0.0002124138     1     8     2     6
 -0.0001613609     1     8     2     7
 0.0000899957     1     8     2     9
 -0.0003290145     1     8     2    10
 0.0002423302     1     8     2    12
 -0.0002710163     1     8     2    13
 0.0407281490     1     8     3     1
 -0.0033312780     1     8     3     2
 -0.0010825009     1     8     3     3
 0.0017713172     1     8     3     4
 0.0009319373     1     8     3     6
 -0.0006986835     1     8     3     7
 0.0000459178     1     8     3     9
 -0.0015098324     1     8     3    10
 0.0010788483     1     8     3    12
 0.0003293456     1     8     3    13
 0.0913516989     1     8     4     1
 -0.0078591581     1     8     4     2
 0.0038780252     1     8     4     3
 -0.0010905635     1     8     4     4
 0.0011845762     1     8     4     6
 -0.0002923861     1     8     4     7
 -0.0013615020     1     8     4     9
 0.0007892350     1     8     4    10
 0.0007980151     1     8     4    12
 -0.0000502592     1     8     4    13
 -0.0036601396     1     8     5     5
 0.0020769286     1     8     5    11
 -0.0009607091     1     8     5    14
 0.1415353245     1     8     6     1
 -0.0053458009     1     8     6     2
 0.0010444324     1     8     6     3
 -0.0024446643     1     8     6     4
 0.0007567910     1     8     6     6
 -0.0005533000     1     8     6     7
 -0.0009954614     1     8     6     9
 0.0002991984     1     8     6    10
 0.0004856922     1     8     6    12
 0.0008781216     1     8     6    13
 0.0502259875     1     8     7     1
 -0.0022669127     1     8     7     2
 -0.0002732697     1     8     7     3
 -0.0006080722     1     8     7     4
 0.0003103096     1     8     7     6
 -0.0007031236     1     8     7     7
 -0.0004458631     1     8     7     9
 -0.0002550152     1     8     7    10
 0.0001005034     1     8     7    12
 0.0009569248     1     8     7    13
 -0.3137762279     1     8     8     1
 0.0029564664     1     8     8     2
 0.0006838234     1     8     8     3
 0.0032579722     1     8     8     4
 0.0008341780     1     8     8     6
 0.0009193125     1     8     8     7
 0.0008437031     1     8     8     9
 -0.0003400032     1     8     8    10
 0.0000688505     1     8     8    12
 -0.0017786251     1     8     8    13
 0.0120059570     1     8     9     1
 -0.0010192131     1     8     9     2
 -0.0001460261     1     8     9     3
 0.0000603824     1     8     9     4
 0.0002514421     1     8     9     6
 -0.0003743853     1     8     9     7