&FCI NORB= 13,NELEC= 16,MS2=0,
 ORBSYM=1,1,1,1,1,1,1,1,1,1,1,1,1
 ISYM=1,
&END
 0.3951843703     1     1     2     2
 -0.0051424116     1     1     2     4
 -0.0014450381     1     1     2    11
 0.5956805787     1     1     3     3
 -0.1113642076     1     1     3     6
 -0.0410578249     1     1     3     9
 -0.0051424116     1     1     4     2
 0.4805789459     1     1     4     4
 0.0705118477     1     1     4    11
 0.4809995029     1     1     5     5
 -0.0845724257     1     1     5    12
 -0.1113642076     1     1     6     3
 0.5623299940     1     1     6     6
 -0.0579527495     1     1     6     9
 0.4477390630     1     1     7     7
 0.0675809348     1     1     7    13
 0.5246266908     1     1     8     8
 -0.0410578249     1     1     9     3
 -0.0579527495     1     1     9     6
 0.2241690793     1     1     9     9
 0.4009932732     1     1    10    10
 -0.0014450381     1     1    11     2
 0.0705118477     1     1    11     4
 0.2050333358     1     1    11    11
 -0.0845724257     1     1    12     5
 0.2202107483     1     1    12    12
 0.0675809348     1     1    13     7
 0.1890804967     1     1    13    13
 -0.3951843703     1     2     2     1
 -0.0042891310     1     2     2     3
 0.0129649104     1     2     2     6
 -0.0026891047     1     2     2     9
 0.1491138478     1     2     3     4
 0.0427399604     1     2     3    11
 0.0051424116     1     2     4     1
 0.1492302255     1     2     4     3
 0.1287793786     1     2     4     6
 -0.0535272842     1     2     4     9
 -0.1649976711     1     2     5     7
 -0.0422654971     1     2     5    13
 0.1291227726     1     2     6     4
 0.0146788085     1     2     6    11
 -0.1647976145     1     2     7     5
 0.0364239963     1     2     7    12
 0.1445648236     1     2     8    10
 -0.0535967527     1     2     9     4
 -0.0372945232     1     2     9    11
 0.1443306816     1     2    10     8
 0.0014450381     1     2    11     1
 0.0427732045     1     2    11     3
 0.0145800248     1     2    11     6
 -0.0372744863     1     2    11     9
 0.0365177965     1     2    12     7
 0.0372559823     1     2    12    13
 -0.0421865336     1     2    13     5
 0.0372189271     1     2    13    12
 0.0042891310     1     3     2     2
 -0.0001163777     1     3     2     4
 -0.0000332441     1     3     2    11
 -0.5956805787     1     3     3     1
 0.0092085472     1     3     3     6
 -0.0025693301     1     3     3     9
 -0.1492302255     1     3     4     2
 -0.0052452874     1     3     4     4
 -0.0014921160     1     3     4    11
 -0.0115570464     1     3     5     5
 0.0050752258     1     3     5    12
 0.1113642076     1     3     6     1
 -0.0178144634     1     3     6     6
 0.0053609033     1     3     6     9
 -0.0085958737     1     3     7     7
 -0.0032176097     1     3     7    13
 -0.0127753150     1     3     8     8
 0.0410578249     1     3     9     1
 0.0030057664     1     3     9     6
 -0.0008692111     1     3     9     9
 -0.0070570455     1     3    10    10
 -0.0427732045     1     3    11     2
 -0.0010560203     1     3    11     4
 -0.0004776297     1     3    11    11
 0.0039423936     1     3    12     5
 -0.0017926568     1     3    12    12
 -0.0027463073     1     3    13     7
 -0.0011078089     1     3    13    13
 0.0051424116     1     4     2     1
 0.0001163777     1     4     2     3
 -0.0003433940     1     4     2     6
 0.0000694685     1     4     2     9
 -0.1491138478     1     4     3     2
 -0.0004360957     1     4     3    11
 -0.4805789459     1     4     4     1
 0.0052452874     1     4     4     3
 -0.0026810521     1     4     4     6
 0.0001587107     1     4     4     9
 0.0058856369     1     4     5     7
 0.0028241883     1     4     5    13
 -0.1291227726     1     4     6     2
 -0.0002687479     1     4     6    11
 0.0079210360     1     4     7     5
 -0.0044537739     1     4     7    12
 -0.0054516329     1     4     8    10
 0.0535967527     1     4     9     2
 -0.0005151046     1     4     9    11
 -0.0072620194     1     4    10     8
 -0.0705118477     1     4    11     1
 0.0010560203     1     4    11     3
 -0.0006636811     1     4    11     6
 -0.0005780591     1     4    11     9
 -0.0023550103     1     4    12     7
 -0.0003559146     1     4    12    13
 0.0024278331     1     4    13     5
 -0.0006439963     1     4    13    12
 -0.0002000566     1     5     2     7
 -0.0000789635     1     5     2    13
 0.0011328322     1     5     3    12
 -0.0020353991     1     5     4     7
 0.0003963552     1     5     4    13
 -0.4809995029     1     5     5     1
 0.0115570464     1     5     5     3
 0.0036807033     1     5     5     6
 -0.0018363001     1     5     5     9
 0.0015431879     1     5     6    12
 0.1647976145     1     5     7     2
 -0.0079210360     1     5     7     4
 -0.0016150074     1     5     7    11
 0.0015830309     1     5     9    12
 -0.0000295909     1     5    11     7
 -0.0011054399     1     5    11    13
 0.0845724257     1     5    12     1
 -0.0039423936     1     5    12     3
 -0.0006048301     1     5    12     6
 0.0025518114     1     5    12     9
 0.0421865336     1     5    13     2
 -0.0024278331     1     5    13     4
 -0.0018847010     1     5    13    11
 -0.0129649104     1     6     2     2
 0.0003433940     1     6     2     4
 0.0000987837     1     6     2    11
 0.1113642076     1     6     3     1
 -0.0092085472     1     6     3     3
 0.0023551369     1     6     3     9
 -0.1287793786     1     6     4     2
 0.0026810521     1     6     4     4
 0.0003949332     1     6     4    11
 -0.0036807033     1     6     5     5
 0.0021480180     1     6     5    12
 -0.5623299940     1     6     6     1
 0.0178144634     1     6     6     3
 -0.0044609934     1     6     6     9
 -0.0017345754     1     6     7     7
 -0.0010776791     1     6     7    13
 -0.0041316270     1     6     8     8
 0.0579527495     1     6     9     1
 -0.0030057664     1     6     9     3
 0.0004331114     1     6     9     9
 -0.0011241370     1     6    10    10
 -0.0145800248     1     6    11     2
 0.0006636811     1     6    11     4
 0.0006327495     1     6    11    11
 0.0006048301     1     6    12     5
 -0.0003464193     1     6    12    12
 -0.0004405528     1     6    13     7
 -0.0000422183     1     6    13    13
 0.0002000566     1     7     2     5
 -0.0000938002     1     7     2    12
 -0.0004713024     1     7     3    13
 0.0020353991     1     7     4     5
 -0.0020987636     1     7     4    12
 0.1649976711     1     7     5     2
 -0.0058856369     1     7     5     4
 -0.0015854165     1     7     5    11
 -0.0006371263     1     7     6    13
 -0.4477390630     1     7     7     1
 0.0085958737     1     7     7     3
 0.0017345754     1     7     7     6
 -0.0014850132     1     7     7     9
 -0.0003771744     1     7     9    13
 0.0000295909     1     7    11     5
 0.0003504751     1     7    11    12
 -0.0365177965     1     7    12     2
 0.0023550103     1     7    12     4
 0.0013544147     1     7    12    11
 -0.0675809348     1     7    13     1
 0.0027463073     1     7    13     3
 0.0004405528     1     7    13     6
 -0.0010609249     1     7    13     9
 0.0002341420     1     8     2    10
 0.0018103865     1     8     4    10
 -0.5246266908     1     8     8     1
 0.0127753150     1     8     8     3
 0.0041316270     1     8     8     6
 -0.0036875428     1     8     8     9
 -0.1443306816     1     8    10     2
 0.0072620194     1     8    10     4
 0.0020663898     1     8    10    11
 0.0000018211     1     8    11    10
 0.0026891047     1     9     2     2
 -0.0000694685     1     9     2     4
 -0.0000200369     1     9     2    11
 0.0410578249     1     9     3     1
 0.0025693301     1     9     3     3
 -0.0023551369     1     9     3     6
 0.0535272842     1     9     4     2
 -0.0001587107     1     9     4     4
 0.0000629545     1     9     4    11
 0.0018363001     1     9     5     5
 -0.0009687805     1     9     5    12
 0.0579527495     1     9     6     1
 -0.0053609033     1     9     6     3
 0.0044609934     1     9     6     6
 0.0014850132     1     9     7     7
 0.0006837505     1     9     7    13
 0.0036875428     1     9     8     8
 -0.2241690793     1     9     9     1
 0.0008692111     1     9     9     3
 -0.0004331114     1     9     9     6
 0.0017462842     1     9    10    10
 0.0372744863     1     9    11     2
 0.0005780591     1     9    11     4
 0.0000612298     1     9    11    11
 -0.0025518114     1     9    12     5
 0.0011524940     1     9    12    12
 0.0010609249     1     9    13     7
 0.0003792552     1     9    13    13
 -0.0002341420     1    10     2     8
 -0.0018103865     1    10     4     8
 -0.1445648236     1    10     8     2
 0.0054516329     1    10     8     4
 0.0020645687     1    10     8    11
 -0.4009932732     1    10    10     1
 0.0070570455     1    10    10     3
 0.0011241370     1    10    10     6
 -0.0017462842     1    10    10     9
 -0.0000018211     1    10    11     8
 0.0014450381     1    11     2     1
 0.0000332441     1    11     2     3
 -0.0000987837     1    11     2     6
 0.0000200369     1    11     2     9
 -0.0427399604     1    11     3     2
 0.0004360957     1    11     3     4
 -0.0705118477     1    11     4     1
 0.0014921160     1    11     4     3
 -0.0003949332     1    11     4     6
 -0.0000629545     1    11     4     9
 0.0015854165     1    11     5     7
 0.0007792611     1    11     5    13
 -0.0146788085     1    11     6     2
 0.0002687479     1    11     6     4
 0.0016150074     1    11     7     5
 -0.0010039396     1    11     7    12
 -0.0020645687     1    11     8    10
 0.0372945232     1    11     9     2
 0.0005151046     1    11     9     4
 -0.0020663898     1    11    10     8
 -0.2050333358     1    11    11     1
 0.0004776297     1    11    11     3
 -0.0006327495     1    11    11     6
 -0.0000612298     1    11    11     9
 -0.0013544147     1    11    12     7
 -0.0003684503     1    11    12    13
 0.0018847010     1    11    13     5
 -0.0007109665     1    11    13    12
 0.0000938002     1    12     2     7
 0.0000370552     1    12     2    13
 -0.0011328322     1    12     3     5
 0.0020987636     1    12     4     7
 0.0002880817     1    12     4    13
 0.0845724257     1    12     5     1
 -0.0050752258     1    12     5     3
 -0.0021480180     1    12     5     6
 0.0009687805     1    12     5     9
 -0.0015431879     1    12     6     5
 -0.0364239963     1    12     7     2
 0.0044537739     1    12     7     4
 0.0010039396     1    12     7    11
 -0.0015830309     1    12     9     5
 -0.0003504751     1    12    11     7
 0.0003425162     1    12    11    13
 -0.2202107483     1    12    12     1
 0.0017926568     1    12    12     3
 0.0003464193     1    12    12     6
 -0.0011524940     1    12    12     9
 -0.0372189271     1    12    13     2
 0.0006439963     1    12    13     4
 0.0007109665     1    12    13    11
 0.0000789635     1    13     2     5
 -0.0000370552     1    13     2    12
 0.0004713024     1    13     3     7
 -0.0003963552     1    13     4     5
 -0.0002880817     1    13     4    12
 0.0422654971     1    13     5     2
 -0.0028241883     1    13     5     4
 -0.0007792611     1    13     5    11
 0.0006371263     1    13     6     7
 -0.0675809348     1    13     7     1
 0.0032176097     1    13     7     3
 0.0010776791     1    13     7     6
 -0.0006837505     1    13     7     9
 0.0003771744     1    13     9     7
 0.0011054399     1    13    11     5
 -0.0003425162     1    13    11    12
 -0.0372559823     1    13    12     2
 0.0003559146     1    13    12     4
 0.0003684503     1    13    12    11
 -0.1890804967     1    13    13     1
 0.0011078089     1    13    13     3
 0.0000422183     1    13    13     6
 -0.0003792552     1    13    13     9
 -0.3951843703     2     1     1     2
 0.0051424116     2     1     1     4
 0.0014450381     2     1     1    11
 -0.0042891310     2     1     3     2
 0.1492302255     2     1     3     4
 0.0427732045     2     1     3    11
 0.1491138478     2     1     4     3
 0.1291227726     2     1     4     6
 -0.0535967527     2     1     4     9
 -0.1647976145     2     1     5     7
 -0.0421865336     2     1     5    13
 0.0129649104     2     1     6     2
 0.1287793786     2     1     6     4
 0.0145800248     2     1     6    11
 -0.1649976711     2     1     7     5
 0.0365177965     2     1     7    12
 0.1443306816     2     1     8    10
 -0.0026891047     2     1     9     2
 -0.0535272842     2     1     9     4
 -0.0372744863     2     1     9    11
 0.1445648236     2     1    10     8
 0.0427399604     2     1    11     3
 0.0146788085     2     1    11     6
 -0.0372945232     2     1    11     9
 0.0364239963     2     1    12     7
 0.0372189271     2     1    12    13
 -0.0422654971     2     1    13     5
 0.0372559823     2     1    13    12
 0.3951843703     2     2     1     1
 0.0042891310     2     2     1     3
 -0.0129649104     2     2     1     6
 0.0026891047     2     2     1     9
 0.0042891310     2     2     3     1
 0.5956981100     2     2     3     3
 -0.1115540917     2     2     3     6
 -0.0410078589     2     2     3     9
 0.4804832844     2     2     4     4
 0.0704828282     2     2     4    11
 0.4812537993     2     2     5     5
 -0.0846886140     2     2     5    12
 -0.0129649104     2     2     6     1
 -0.1115540917     2     2     6     3
 0.5631562432     2     2     6     6
 -0.0581433959     2     2     6     9
 0.4475982735     2     2     7     7
 0.0675231544     2     2     7    13
 0.5249694381     2     2     8     8
 0.0026891047     2     2     9     1
 -0.0410078589     2     2     9     3
 -0.0581433959     2     2     9     6
 0.2242102432     2     2     9     9
 0.4008532883     2     2    10    10
 0.0704828282     2     2    11     4
 0.2050272554     2     2    11    11
 -0.0846886140     2     2    12     5
 0.2202649026     2     2    12    12
 0.0675231544     2     2    13     7
 0.1890582709     2     2    13    13
 -0.0042891310     2     3     1     2
 0.0001163777     2     3     1     4
 0.0000332441     2     3     1    11
 -0.5956981100     2     3     3     2
 0.0037761330     2     3     3     4
 0.0011486699     2     3     3    11
 -0.1491138478     2     3     4     1
 -0.0110189906     2     3     4     6
 0.0030231433     2     3     4     9
 0.0131001950     2     3     5     7
 0.0047027479     2     3     5    13
 0.1115540917     2     3     6     2
 -0.0120328974     2     3     6     4
 -0.0031979505     2     3     6    11
 0.0107931951     2     3     7     5
 -0.0041128852     2     3     7    12
 -0.0126261812     2     3     8    10
 0.0410078589     2     3     9     2
 0.0022445969     2     3     9     4
 0.0010924485     2     3     9    11
 -0.0100109557     2     3    10     8
 -0.0427399604     2     3    11     1
 -0.0020853486     2     3    11     6
 0.0010979910     2     3    11     9
 -0.0041395318     2     3    12     7
 -0.0020713704     2     3    12    13
 0.0032995734     2     3    13     5
 -0.0018350794     2     3    13    12
 -0.0051424116     2     4     1     1
 -0.0001163777     2     4     1     3
 0.0003433940     2     4     1     6
 -0.0000694685     2     4     1     9
 -0.1492302255     2     4     3     1
 -0.0037761330     2     4     3     3
 0.0010139068     2     4     3     6
 0.0007785464     2     4     3     9
 -0.4804832844     2     4     4     2
 -0.0002560616     2     4     4    11
 -0.0096026704     2     4     5     5
 0.0045217060     2     4     5    12
 -0.1287793786     2     4     6     1
 0.0120328974     2     4     6     3
 -0.0162874711     2     4     6     6
 0.0018817578     2     4     6     9
 -0.0093228433     2     4     7     7
 -0.0037876985     2     4     7    13
 -0.0110573242     2     4     8     8
 0.0535272842     2     4     9     1
 -0.0022445969     2     4     9     3
 0.0033484145     2     4     9     6
 -0.0006121594     2     4     9     9
 -0.0072231477     2     4    10    10
 -0.0704828282     2     4    11     2
 0.0001434270     2     4    11    11
 0.0032910881     2     4    12     5
 -0.0015348341     2     4    12    12
 -0.0026857974     2     4    13     7
 -0.0009942909     2     4    13    13
 0.0002000566     2     5     1     7
 0.0000789635     2     5     1    13
 0.0023069999     2     5     3     7
 0.0014031745     2     5     3    13
 0.0012306179     2     5     4    12
 -0.4812537993     2     5     5     2
 0.0096026704     2     5     5     4
 0.0026276435     2     5     5    11
 -0.0009343144     2     5     6     7
 0.0002916209     2     5     6    13
 0.1649976711     2     5     7     1
 -0.0107931951     2     5     7     3
 0.0034004711     2     5     7     6
 0.0004851857     2     5     7     9
 0.0004457624     2     5     9     7
 0.0005628050     2     5     9    13
 -0.0003806241     2     5    11    12
 0.0846886140     2     5    12     2
 -0.0032910881     2     5    12     4
 -0.0016494068     2     5    12    11
 0.0422654971     2     5    13     1
 -0.0032995734     2     5    13     3
 0.0006787780     2     5    13     6
 0.0008818346     2     5    13     9
 0.0129649104     2     6     1     2
 -0.0003433940     2     6     1     4
 -0.0000987837     2     6     1    11
 0.1115540917     2     6     3     2
 -0.0010139068     2     6     3     4
 -0.0011126019     2     6     3    11
 -0.1291227726     2     6     4     1
 0.0110189906     2     6     4     3
 -0.0014666567     2     6     4     9
 -0.0043347855     2     6     5     7
 -0.0003871571     2     6     5    13
 -0.5631562432     2     6     6     2
 0.0162874711     2     6     6     4
 0.0039609603     2     6     6    11
 -0.0034004711     2     6     7     5
 -0.0007164954     2     6     7    12
 0.0051002699     2     6     8    10
 0.0581433959     2     6     9     2
 -0.0033484145     2     6     9     4
 -0.0022945593     2     6     9    11
 0.0029100705     2     6    10     8
 -0.0146788085     2     6    11     1
 0.0020853486     2     6    11     3
 -0.0019023772     2     6    11     9
 0.0011479378     2     6    12     7
 0.0018636143     2     6    12    13
 -0.0006787780     2     6    13     5
 0.0014271341     2     6    13    12
 -0.0002000566     2     7     1     5
 0.0000938002     2     7     1    12
 -0.0023069999     2     7     3     5
 0.0000266466     2     7     3    12
 -0.0011019011     2     7     4    13
 0.1647976145     2     7     5     1
 -0.0131001950     2     7     5     3
 0.0043347855     2     7     5     6
 0.0000394233     2     7     5     9
 0.0009343144     2     7     6     5
 -0.0018644332     2     7     6    12
 -0.4475982735     2     7     7     2
 0.0093228433     2     7     7     4
 0.0020360001     2     7     7    11
 -0.0004457624     2     7     9     5
 -0.0012438215     2     7     9    12
 0.0010050392     2     7    11    13
 -0.0364239963     2     7    12     1
 0.0041395318     2     7    12     3
 -0.0011479378     2     7    12     6
 -0.0019760511     2     7    12     9
 -0.0675231544     2     7    13     2
 0.0026857974     2     7    13     4
 0.0018609625     2     7    13    11
 -0.0002341420     2     8     1    10
 -0.0026152255     2     8     3    10
 0.0021901994     2     8     6    10
 -0.5249694381     2     8     8     2
 0.0110573242     2     8     8     4
 0.0037516762     2     8     8    11
 -0.0001633893     2     8     9    10
 -0.1445648236     2     8    10     1
 0.0100109557     2     8    10     3
 -0.0029100705     2     8    10     6
 -0.0012721156     2     8    10     9
 -0.0026891047     2     9     1     2
 0.0000694685     2     9     1     4
 0.0000200369     2     9     1    11
 0.0410078589     2     9     3     2
 -0.0007785464     2     9     3     4
 -0.0000055425     2     9     3    11
 0.0535967527     2     9     4     1
 -0.0030231433     2     9     4     3
 0.0014666567     2     9     4     6
 -0.0000394233     2     9     5     7
 -0.0003190296     2     9     5    13
 0.0581433959     2     9     6     2
 -0.0018817578     2     9     6     4
 -0.0003921821     2     9     6    11
 -0.0004851857     2     9     7     5
 0.0007322296     2     9     7    12
 0.0011087263     2     9     8    10
 -0.2242102432     2     9     9     2
 0.0006121594     2     9     9     4
 0.0004567426     2     9     9    11
 0.0012721156     2     9    10     8
 0.0372945232     2     9    11     1
 -0.0010979910     2     9    11     3
 0.0019023772     2     9    11     6
 0.0019760511     2     9    12     7
 0.0004480129     2     9    12    13
 -0.0008818346     2     9    13     5
 0.0001404333     2     9    13    12
 0.0002341420     2    10     1     8
 0.0026152255     2    10     3     8
 -0.0021901994     2    10     6     8
 -0.1443306816     2    10     8     1
 0.0126261812     2    10     8     3
 -0.0051002699     2    10     8     6
 -0.0011087263     2    10     8     9
 0.0001633893     2    10     9     8
 -0.4008532883     2    10    10     2
 0.0072231477     2    10    10     4
 0.0020303842     2    10    10    11
 -0.0014450381     2    11     1     1
 -0.0000332441     2    11     1     3
 0.0000987837     2    11     1     6
 -0.0000200369     2    11     1     9
 -0.0427732045     2    11     3     1
 -0.0011486699     2    11     3     3
 0.0011126019     2    11     3     6
 0.0000055425     2    11     3     9
 -0.0704828282     2    11     4     2
 0.0002560616     2    11     4     4
 -0.0026276435     2    11     5     5
 0.0012687827     2    11     5    12
 -0.0145800248     2    11     6     1
 0.0031979505     2    11     6     3
 -0.0039609603     2    11     6     6
 0.0003921821     2    11     6     9
 -0.0020360001     2    11     7     7
 -0.0008559233     2    11     7    13
 -0.0037516762     2    11     8     8
 0.0372744863     2    11     9     1
 -0.0010924485     2    11     9     3
 0.0022945593     2    11     9     6
 -0.0004567426     2    11     9     9
 -0.0020303842     2    11    10    10
 -0.2050272554     2    11    11     2
 -0.0001434270     2    11    11     4
 0.0016494068     2    11    12     5
 -0.0007424888     2    11    12    12
 -0.0018609625     2    11    13     7
 -0.0007004566     2    11    13    13
 -0.0000938002     2    12     1     7
 -0.0000370552     2    12     1    13
 -0.0000266466     2    12     3     7
 -0.0002362910     2    12     3    13
 -0.0012306179     2    12     4     5
 0.0846886140     2    12     5     2
 -0.0045217060     2    12     5     4
 -0.0012687827     2    12     5    11
 0.0018644332     2    12     6     7
 0.0004364802     2    12     6    13
 -0.0365177965     2    12     7     1
 0.0041128852     2    12     7     3
 0.0007164954     2    12     7     6
 -0.0007322296     2    12     7     9
 0.0012438215     2    12     9     7
 0.0003075796     2    12     9    13
 0.0003806241     2    12    11     5
 -0.2202649026     2    12    12     2
 0.0015348341     2    12    12     4
 0.0007424888     2    12    12    11
 -0.0372559823     2    12    13     1
 0.0018350794     2    12    13     3
 -0.0014271341     2    12    13     6
 -0.0001404333     2    12    13     9
 -0.0000789635     2    13     1     5
 0.0000370552     2    13     1    12
 -0.0014031745     2    13     3     5
 0.0002362910     2    13     3    12
 0.0011019011     2    13     4     7
 0.0421865336     2    13     5     1
 -0.0047027479     2    13     5     3
 0.0003871571     2    13     5     6
 0.0003190296     2    13     5     9
 -0.0002916209     2    13     6     5
 -0.0004364802     2    13     6    12
 -0.0675231544     2    13     7     2
 0.0037876985     2    13     7     4
 0.0008559233     2    13     7    11
 -0.0005628050     2    13     9     5
 -0.0003075796     2    13     9    12
 -0.0010050392     2    13    11     7
 -0.0372189271     2    13    12     1
 0.0020713704     2    13    12     3
 -0.0018636143     2    13    12     6
 -0.0004480129     2    13    12     9
 -0.1890582709     2    13    13     2
 0.0009942909     2    13    13     4
 0.0007004566     2    13    13    11
 -0.5956805787     3     1     1     3
 0.1113642076     3     1     1     6
 0.0410578249     3     1     1     9
 0.0042891310     3     1     2     2
 -0.1492302255     3     1     2     4
 -0.0427732045     3     1     2    11
 -0.0001163777     3     1     4     2
 -0.0052452874     3     1     4     4
 -0.0010560203     3     1     4    11
 -0.0115570464     3     1     5     5
 0.0039423936     3     1     5    12
 0.0092085472     3     1     6     3
 -0.0178144634     3     1     6     6
 0.0030057664     3     1     6     9
 -0.0085958737     3     1     7     7
 -0.0027463073     3     1     7    13
 -0.0127753150     3     1     8     8
 -0.0025693301     3     1     9     3
 0.0053609033     3     1     9     6
 -0.0008692111     3     1     9     9
 -0.0070570455     3     1    10    10
 -0.0000332441     3     1    11     2
 -0.0014921160     3     1    11     4
 -0.0004776297     3     1    11    11
 0.0050752258     3     1    12     5
 -0.0017926568     3     1    12    12
 -0.0032176097     3     1    13     7
 -0.0011078089     3     1    13    13
 -0.1491138478     3     2     1     4
 -0.0427399604     3     2     1    11
 -0.0042891310     3     2     2     1
 -0.5956981100     3     2     2     3
 0.1115540917     3     2     2     6
 0.0410078589     3     2     2     9
 0.0001163777     3     2     4     1
 0.0037761330     3     2     4     3
 -0.0120328974     3     2     4     6
 0.0022445969     3     2     4     9
 0.0107931951     3     2     5     7
 0.0032995734     3     2     5    13
 -0.0110189906     3     2     6     4
 -0.0020853486     3     2     6    11
 0.0131001950     3     2     7     5
 -0.0041395318     3     2     7    12
 -0.0100109557     3     2     8    10
 0.0030231433     3     2     9     4
 0.0010979910     3     2     9    11
 -0.0126261812     3     2    10     8
 0.0000332441     3     2    11     1
 0.0011486699     3     2    11     3
 -0.0031979505     3     2    11     6
 0.0010924485     3     2    11     9
 -0.0041128852     3     2    12     7
 -0.0018350794     3     2    12    13
 0.0047027479     3     2    13     5
 -0.0020713704     3     2    13    12
 0.5956805787     3     3     1     1
 -0.0092085472     3     3     1     6
 0.0025693301     3     3     1     9
 0.5956981100     3     3     2     2
 -0.0037761330     3     3     2     4
 -0.0011486699     3     3     2    11
 -0.0037761330     3     3     4     2
 0.3152592374     3     3     4     4
 0.0282937912     3     3     4    11
 0.3522548278     3     3     5     5
 -0.0439479030     3     3     5    12
 -0.0092085472     3     3     6     1
 0.3843735869     3     3     6     6
 -0.0332034795     3     3     6     9
 0.3528807770     3     3     7     7
 0.0394675703     3     3     7    13
 0.3875320525     3     3     8     8
 0.0025693301     3     3     9     1
 -0.0332034795     3     3     9     6
 0.2092518960     3     3     9     9
 0.3273493213     3     3    10    10
 -0.0011486699     3     3    11     2
 0.0282937912     3     3    11     4
 0.1896681922     3     3    11    11
 -0.0439479030     3     3    12     5
 0.2042787997     3     3    12    12
 0.0394675703     3     3    13     7
 0.1794990793     3     3    13    13
 0.1491138478     3     4     1     2
 0.0004360957     3     4     1    11
 0.1492302255     3     4     2     1
 0.0037761330     3     4     2     3
 -0.0010139068     3     4     2     6
 -0.0007785464     3     4     2     9
 0.0052452874     3     4     4     1
 -0.3152592374     3     4     4     3
 0.0893943356     3     4     4     6
 0.0012198839     3     4     4     9
 -0.0553636008     3     4     5     7
 -0.0084819949     3     4     5    13
 0.0110189906     3     4     6     2
 -0.0104172604     3     4     6    11
 -0.0328759121     3     4     7     5
 -0.0030569587     3     4     7    12
 0.0510310059     3     4     8    10
 -0.0030231433     3     4     9     2
 -0.0226722085     3     4     9    11
 0.0348560948     3     4    10     8
 0.0014921160     3     4    11     1
 -0.0282937912     3     4    11     3
 0.0096242695     3     4    11     6
 -0.0233083455     3     4    11     9
 0.0043706986     3     4    12     7
 0.0269932302     3     4    12    13
 -0.0067034925     3     4    13     5
 0.0256360681     3     4    13    12
 -0.0000000001     3     4    13    13
 -0.0011328322     3     5     1    12
 -0.0023069999     3     5     2     7
 -0.0014031745     3     5     2    13
 -0.0224876887     3     5     4     7
 -0.0017785024     3     5     4    13
 0.0115570464     3     5     5     1
 -0.3522548278     3     5     5     3
 0.0564158613     3     5     5     6
 0.0227240008     3     5     5     9
 0.0096022110     3     5     6    12
 -0.0131001950     3     5     7     2
 0.0328759121     3     5     7     4
 0.0136417596     3     5     7    11
 0.0238355891     3     5     9    12
 0.0004968066     3     5    11     7
 -0.0182770249     3     5    11    13
 -0.0050752258     3     5    12     1
 0.0439479030     3     5    12     3
 -0.0084713141     3     5    12     6
 0.0196497244     3     5    12     9
 -0.0047027479     3     5    13     2
 0.0067034925     3     5    13     4
 -0.0153237071     3     5    13    11
 -0.0000000001     3     5    13    13
 -0.1113642076     3     6     1     1
 0.0092085472     3     6     1     3
 -0.0023551369     3     6     1     9
 -0.1115540917     3     6     2     2
 0.0010139068     3     6     2     4
 0.0011126019     3     6     2    11
 0.0120328974     3     6     4     2
 -0.0893943356     3     6     4     4
 -0.0200415299     3     6     4    11
 -0.0564158613     3     6     5     5
 0.0180735251     3     6     5    12
 0.0178144634     3     6     6     1