&FCI NORB= 16,NELEC= 10,MS2=0,
 ORBSYM=1,1,1,1,1,1,1,1,1,1,1,1,1,1,1,1
 ISYM=1,
&END
 0.9844503642     1     1     2     2
 0.0692104353     1     1     2     4
 -0.1513448244     1     1     2     6
 -0.1201518739     1     1     2     9
 0.0397886368     1     1     2    10
 -0.0704526600     1     1     2    12
 0.1880374884     1     1     2    16
 0.8670599950     1     1     3     3
 0.1846367670     1     1     3     7
 0.1107239782     1     1     3     8
 0.2598816987     1     1     3    13
 0.0692104353     1     1     4     2
 0.9535025039     1     1     4     4
 0.0826045990     1     1     4     6
 0.0653692057     1     1     4     9
 -0.2768892105     1     1     4    10
 0.0417634328     1     1     4    12
 0.1867471385     1     1     4    16
 1.0038259070     1     1     5     5
 -0.3576165922     1     1     5    11
 0.0256821504     1     1     5    15
 -0.1513448244     1     1     6     2
 0.0826045990     1     1     6     4
 0.3477810871     1     1     6     6
 0.1071853987     1     1     6     9
 -0.0898925452     1     1     6    10
 0.0571405047     1     1     6    12
 -0.0726115346     1     1     6    16
 0.1846367670     1     1     7     3
 0.3252899566     1     1     7     7
 0.0988016405     1     1     7     8
 0.1675834457     1     1     7    13
 0.1107239782     1     1     8     3
 0.0988016405     1     1     8     7
 0.4543104526     1     1     8     8
 0.0846824794     1     1     8    13
 -0.1201518739     1     1     9     2
 0.0653692057     1     1     9     4
 0.1071853987     1     1     9     6
 0.4543800462     1     1     9     9
 -0.0560478793     1     1     9    10
 0.0197611159     1     1     9    12
 -0.0007121601     1     1     9    16
 0.0397886368     1     1    10     2
 -0.2768892105     1     1    10     4
 -0.0898925452     1     1    10     6
 -0.0560478793     1     1    10     9
 0.5357604645     1     1    10    10
 -0.0456883676     1     1    10    12
 -0.1091956286     1     1    10    16
 -0.3576165922     1     1    11     5
 0.6615343979     1     1    11    11
 -0.0299348875     1     1    11    15
 -0.0704526600     1     1    12     2
 0.0417634328     1     1    12     4
 0.0571405047     1     1    12     6
 0.0197611159     1     1    12     9
 -0.0456883676     1     1    12    10
 0.4314093851     1     1    12    12
 -0.0004549346     1     1    12    16
 0.2598816987     1     1    13     3
 0.1675834457     1     1    13     7
 0.0846824794     1     1    13     8
 0.5461608243     1     1    13    13
 0.4173102357     1     1    14    14
 0.0256821504     1     1    15     5
 -0.0299348875     1     1    15    11
 0.4164588900     1     1    15    15
 0.1880374884     1     1    16     2
 0.1867471385     1     1    16     4
 -0.0726115346     1     1    16     6
 -0.0007121601     1     1    16     9
 -0.1091956286     1     1    16    10
 -0.0004549346     1     1    16    12
 0.6150881648     1     1    16    16
 -0.9844503642     1     2     2     1
 -0.0069591030     1     2     2     4
 -0.0016958902     1     2     2     6
 -0.0020065299     1     2     2     9
 0.0056432080     1     2     2    10
 -0.0015285386     1     2     2    12
 -0.0026862328     1     2     2    16
 0.0307440743     1     2     3     3
 0.0133833085     1     2     3     7
 0.0118639616     1     2     3     8
 0.0242185964     1     2     3    13
 -0.0692104353     1     2     4     1
 0.0360551889     1     2     4     4
 0.0073898155     1     2     4     6
 0.0080153836     1     2     4     9
 -0.0228630501     1     2     4    10
 0.0060410771     1     2     4    12
 0.0130289461     1     2     4    16
 0.0412959269     1     2     5     5
 -0.0296442628     1     2     5    11
 0.0034153093     1     2     5    15
 0.1513448244     1     2     6     1
 0.0073441998     1     2     6     4
 0.0017281472     1     2     6     6
 0.0021126038     1     2     6     9
 -0.0051881496     1     2     6    10
 0.0014444124     1     2     6    12
 0.0025585329     1     2     6    16
 0.0102237921     1     2     7     3
 0.0049196473     1     2     7     7
 0.0043466643     1     2     7     8
 0.0092291177     1     2     7    13
 0.0081756453     1     2     8     3
 0.0038587423     1     2     8     7
 0.0033945345     1     2     8     8
 0.0066377842     1     2     8    13
 0.1201518739     1     2     9     1
 0.0071410598     1     2     9     4
 0.0018563486     1     2     9     6
 0.0016568096     1     2     9     9
 -0.0052974624     1     2     9    10
 0.0014076338     1     2     9    12
 0.0027219604     1     2     9    16
 -0.0397886368     1     2    10     1
 -0.0176689541     1     2    10     4
 -0.0037266659     1     2    10     6
 -0.0043835542     1     2    10     9
 0.0134876622     1     2    10    10
 -0.0027084583     1     2    10    12
 -0.0081004144     1     2    10    16
 -0.0224773550     1     2    11     5
 0.0191592410     1     2    11    11
 -0.0016090153     1     2    11    15
 0.0704526600     1     2    12     1
 0.0044100612     1     2    12     4
 0.0009845497     1     2    12     6
 0.0010991140     1     2    12     9
 -0.0025263494     1     2    12    10
 0.0006241667     1     2    12    12
 0.0012728299     1     2    12    16
 0.0162646127     1     2    13     3
 0.0081598045     1     2    13     7
 0.0066228153     1     2    13     8
 0.0151082499     1     2    13    13
 -0.0003484384     1     2    14    14
 0.0017843855     1     2    15     5
 -0.0008365654     1     2    15    11
 0.0000172611     1     2    15    15
 -0.1880374884     1     2    16     1
 0.0084712457     1     2    16     4
 0.0014060832     1     2    16     6
 0.0017531940     1     2    16     9
 -0.0065666836     1     2    16    10
 0.0009940294     1     2    16    12
 0.0053201390     1     2    16    16
 0.0025488737     1     3     2     7
 0.0032173572     1     3     2     8
 0.0069861455     1     3     2    13
 -0.8670599950     1     3     3     1
 -0.0307440743     1     3     3     2
 -0.0105715667     1     3     3     4
 0.0045886884     1     3     3     6
 0.0002095381     1     3     3     9
 0.0025000079     1     3     3    10
 0.0050091670     1     3     3    12
 -0.0140073488     1     3     3    16
 -0.0013385872     1     3     4     7
 -0.0050656275     1     3     4     8
 -0.0003266916     1     3     4    13
 0.0043676260     1     3     5    14
 0.0021147611     1     3     6     7
 -0.0004324335     1     3     6     8
 0.0019132263     1     3     6    13
 -0.1846367670     1     3     7     1
 -0.0102237921     1     3     7     2
 -0.0033739243     1     3     7     4
 0.0046433014     1     3     7     6
 0.0026508687     1     3     7     9
 -0.0002528262     1     3     7    10
 0.0017207234     1     3     7    12
 -0.0053968061     1     3     7    16
 -0.1107239782     1     3     8     1
 -0.0081756453     1     3     8     2
 -0.0024702125     1     3     8     4
 0.0028350198     1     3     8     6
 0.0047272429     1     3     8     9
 -0.0039512058     1     3     8    10
 0.0035487012     1     3     8    12
 -0.0027453703     1     3     8    16
 0.0019942408     1     3     9     7
 0.0029149121     1     3     9     8
 0.0049854846     1     3     9    13
 0.0002015967     1     3    10     7
 -0.0005261828     1     3    10     8
 0.0012569433     1     3    10    13
 0.0007821536     1     3    11    14
 -0.0008468670     1     3    12     7
 0.0006260837     1     3    12     8
 -0.0013265177     1     3    12    13
 -0.2598816987     1     3    13     1
 -0.0162646127     1     3    13     2
 -0.0054195136     1     3    13     4
 0.0062878181     1     3    13     6
 0.0059306422     1     3    13     9
 0.0012865027     1     3    13    10
 0.0031737198     1     3    13    12
 -0.0119237559     1     3    13    16
 -0.0004345290     1     3    14     5
 0.0045101541     1     3    14    11
 -0.0036912213     1     3    14    15
 -0.0033548218     1     3    15    14
 -0.0001153928     1     3    16     7
 0.0002733521     1     3    16     8
 -0.0016993454     1     3    16    13
 -0.0692104353     1     4     2     1
 0.0069591030     1     4     2     2
 -0.0004059757     1     4     2     6
 0.0004755797     1     4     2     9
 -0.0041506891     1     4     2    10
 0.0013597424     1     4     2    12
 0.0040631498     1     4     2    16
 0.0105715667     1     4     3     3
 0.0022102353     1     4     3     7
 -0.0025153939     1     4     3     8
 0.0053765667     1     4     3    13
 -0.9535025039     1     4     4     1
 -0.0360551889     1     4     4     2
 0.0092403095     1     4     4     6
 0.0096757060     1     4     4     9
 -0.0063958499     1     4     4    10
 0.0002834611     1     4     4    12
 -0.0120464603     1     4     4    16
 0.0138757045     1     4     5     5
 -0.0090464341     1     4     5    11
 -0.0037311083     1     4     5    15
 -0.0826045990     1     4     6     1
 -0.0073441998     1     4     6     2
 0.0041688640     1     4     6     6
 0.0029360795     1     4     6     9
 -0.0038214694     1     4     6    10
 0.0011535760     1     4     6    12
 -0.0023265799     1     4     6    16
 0.0033739243     1     4     7     3
 0.0027678276     1     4     7     7
 0.0011747807     1     4     7     8
 0.0035534933     1     4     7    13
 0.0024702125     1     4     8     3
 0.0029281394     1     4     8     7
 0.0028633144     1     4     8     8
 0.0072364000     1     4     8    13
 -0.0653692057     1     4     9     1
 -0.0071410598     1     4     9     2
 0.0030292096     1     4     9     6
 0.0060698140     1     4     9     9
 -0.0020301280     1     4     9    10
 0.0007589079     1     4     9    12
 -0.0029456827     1     4     9    16
 0.2768892105     1     4    10     1
 0.0176689541     1     4    10     2
 -0.0084387326     1     4    10     6
 -0.0068174730     1     4    10     9
 0.0030169457     1     4    10    10
 -0.0048381094     1     4    10    12
 0.0100672651     1     4    10    16
 -0.0075398448     1     4    11     5
 0.0065272641     1     4    11    11
 -0.0012440740     1     4    11    15
 -0.0417634328     1     4    12     1
 -0.0044100612     1     4    12     2
 0.0027203095     1     4    12     6
 0.0023499170     1     4    12     9
 -0.0058545874     1     4    12    10
 0.0034961201     1     4    12    12
 0.0007935122     1     4    12    16
 0.0054195136     1     4    13     3
 0.0026371903     1     4    13     7
 0.0032771883     1     4    13     8
 0.0039655029     1     4    13    13
 0.0035022626     1     4    14    14
 0.0008654014     1     4    15     5
 -0.0049068699     1     4    15    11
 0.0022799923     1     4    15    15
 -0.1867471385     1     4    16     1
 -0.0084712457     1     4    16     2
 0.0034977912     1     4    16     6
 0.0033247187     1     4    16     9
 -0.0000613163     1     4    16    10
 0.0028473846     1     4    16    12
 -0.0062132292     1     4    16    16
 -0.0058484241     1     5     2    11
 0.0015391789     1     5     2    15
 0.0049825063     1     5     3    14
 -0.0011053454     1     5     4    11
 -0.0047613621     1     5     4    15
 -1.0038259070     1     5     5     1
 -0.0412959269     1     5     5     2
 -0.0138757045     1     5     5     4
 0.0090537656     1     5     5     6
 0.0120125242     1     5     5     9
 0.0028924766     1     5     5    10
 0.0066188626     1     5     5    12
 -0.0126175457     1     5     5    16
 -0.0023224736     1     5     6    11
 -0.0003910475     1     5     6    15
 0.0000324888     1     5     7    14
 0.0004808899     1     5     8    14
 0.0023792406     1     5     9    11
 0.0004519643     1     5     9    15
 0.0016516350     1     5    10    11
 0.0002838009     1     5    10    15
 0.3576165922     1     5    11     1
 0.0224773550     1     5    11     2
 0.0075398448     1     5    11     4
 -0.0091212118     1     5    11     6
 -0.0067002551     1     5    11     9
 0.0000989907     1     5    11    10
 -0.0040507515     1     5    11    12
 0.0167121752     1     5    11    16
 0.0009599309     1     5    12    11
 -0.0006658574     1     5    12    15
 0.0003163496     1     5    13    14
 0.0004345290     1     5    14     3
 -0.0019073756     1     5    14     7
 -0.0010935281     1     5    14     8
 -0.0032074494     1     5    14    13
 -0.0256821504     1     5    15     1
 -0.0017843855     1     5    15     2
 -0.0008654014     1     5    15     4
 0.0014091448     1     5    15     6
 0.0025024093     1     5    15     9
 -0.0027788376     1     5    15    10
 0.0005728320     1     5    15    12
 0.0019761914     1     5    15    16
 0.0080880355     1     5    16    11
 0.0012816846     1     5    16    15
 0.1513448244     1     6     2     1
 0.0016958902     1     6     2     2
 0.0004059757     1     6     2     4
 0.0002788938     1     6     2     9
 -0.0014561789     1     6     2    10
 0.0004630823     1     6     2    12
 0.0010722041     1     6     2    16
 -0.0045886884     1     6     3     3
 -0.0025515024     1     6     3     7
 -0.0033155956     1     6     3     8
 -0.0044362532     1     6     3    13
 -0.0826045990     1     6     4     1
 -0.0073898155     1     6     4     2
 -0.0092403095     1     6     4     4
 -0.0000916646     1     6     4     9
 0.0046586484     1     6     4    10
 -0.0015790096     1     6     4    12
 -0.0059044277     1     6     4    16
 -0.0090537656     1     6     5     5
 0.0068296468     1     6     5    11
 -0.0018138057     1     6     5    15
 -0.3477810871     1     6     6     1
 -0.0017281472     1     6     6     2
 -0.0041688640     1     6     6     4
 -0.0003835759     1     6     6     9
 0.0018917949     1     6     6    10
 -0.0004330527     1     6     6    12
 -0.0019205415     1     6     6    16
 -0.0046433014     1     6     7     3
 -0.0017927081     1     6     7     7
 -0.0017693537     1     6     7     8
 -0.0036072525     1     6     7    13
 -0.0028350198     1     6     8     3
 -0.0008557998     1     6     8     7
 -0.0006208474     1     6     8     8
 -0.0010809473     1     6     8    13
 -0.1071853987     1     6     9     1
 -0.0018563486     1     6     9     2
 -0.0030292096     1     6     9     4
 0.0006947912     1     6     9     9
 0.0016047296     1     6     9    10
 -0.0003476122     1     6     9    12
 -0.0017196961     1     6     9    16
 0.0898925452     1     6    10     1
 0.0037266659     1     6    10     2
 0.0084387326     1     6    10     4
 0.0005827465     1     6    10     9
 -0.0051702307     1     6    10    10
 0.0002422634     1     6    10    12
 0.0054167750     1     6    10    16
 0.0091212118     1     6    11     5
 -0.0068947164     1     6    11    11
 0.0004492406     1     6    11    15
 -0.0571405047     1     6    12     1
 -0.0009845497     1     6    12     2
 -0.0027203095     1     6    12     4
 -0.0001435256     1     6    12     9
 0.0003933840     1     6    12    10
 0.0003925653     1     6    12    12
 -0.0006847106     1     6    12    16
 -0.0062878181     1     6    13     3
 -0.0028430123     1     6    13     7
 -0.0021075711     1     6    13     8
 -0.0054190122     1     6    13    13
 0.0008673091     1     6    14    14
 -0.0014091448     1     6    15     5
 0.0000003616     1     6    15    11
 0.0004394585     1     6    15    15
 0.0726115346     1     6    16     1
 -0.0014060832     1     6    16     2
 -0.0034977912     1     6    16     4
 -0.0001300530     1     6    16     9
 0.0025048153     1     6    16    10
 0.0001069426     1     6    16    12
 -0.0029155023     1     6    16    16
 -0.0025488737     1     7     2     3
 0.0004905738     1     7     2     8
 0.0010419928     1     7     2    13
 -0.1846367670     1     7     3     1
 -0.0133833085     1     7     3     2
 -0.0022102353     1     7     3     4
 0.0025515024     1     7     3     6
 0.0006645917     1     7     3     9
 -0.0004896894     1     7     3    10
 0.0026002401     1     7     3    12
 -0.0053341017     1     7     3    16
 0.0013385872     1     7     4     3
 -0.0017730776     1     7     4     8
 0.0009217220     1     7     4    13
 0.0019566337     1     7     5    14
 -0.0021147611     1     7     6     3
 -0.0009111836     1     7     6     8
 -0.0007599262     1     7     6    13
 -0.3252899566     1     7     7     1
 -0.0049196473     1     7     7     2
 -0.0027678276     1     7     7     4
 0.0017927081     1     7     7     6
 0.0009381940     1     7     7     9
 0.0006036004     1     7     7    10
 0.0005960363     1     7     7    12
 -0.0028079551     1     7     7    16
 -0.0988016405     1     7     8     1
 -0.0038587423     1     7     8     2
 -0.0029281394     1     7     8     4
 0.0008557998     1     7     8     6
 0.0016271129     1     7     8     9
 -0.0005608318     1     7     8    10
 0.0012716138     1     7     8    12
 -0.0018354437     1     7     8    16
 -0.0019942408     1     7     9     3
 0.0005482030     1     7     9     8
 0.0006032558     1     7     9    13
 -0.0002015967     1     7    10     3
 -0.0003041372     1     7    10     8
 0.0003781589     1     7    10    13
 0.0003362661     1     7    11    14
 0.0008468670     1     7    12     3
 0.0005671577     1     7    12     8
 0.0000689104     1     7    12    13
 -0.1675834457     1     7    13     1
 -0.0081598045     1     7    13     2
 -0.0026371903     1     7    13     4
 0.0028430123     1     7    13     6
 0.0026838778     1     7    13     9
 0.0005270960     1     7    13    10
 0.0014434230     1     7    13    12
 -0.0053638111     1     7    13    16
 0.0019073756     1     7    14     5
 0.0003835423     1     7    14    11
 -0.0014356205     1     7    14    15
 -0.0014326972     1     7    15    14
 0.0001153928     1     7    16     3
 0.0001586799     1     7    16     8
 -0.0006210649     1     7    16    13
 -0.0032173572     1     8     2     3
 -0.0004905738     1     8     2     7
 -0.0000180104     1     8     2    13
 -0.1107239782     1     8     3     1
 -0.0118639616     1     8     3     2
 0.0025153939     1     8     3     4
 0.0033155956     1     8     3     6
 0.0018655944     1     8     3     9
 -0.0034761421     1     8     3    10
 0.0029575295     1     8     3    12
 -0.0030980892     1     8     3    16
 0.0050656275     1     8     4     3
 0.0017730776     1     8     4     7
 0.0039948536     1     8     4    13
 0.0015851515     1     8     5    14
 0.0004324335     1     8     6     3
 0.0009111836     1     8     6     7
 0.0010267961     1     8     6    13
 -0.0988016405     1     8     7     1
 -0.0043466643     1     8     7     2
 -0.0011747807     1     8     7     4
 0.0017693537     1     8     7     6
 0.0010811138     1     8     7     9
 -0.0002618334     1     8     7    10
 0.0007095004     1     8     7    12
 -0.0019959045     1     8     7    16
 -0.4543104526     1     8     8     1
 -0.0033945345     1     8     8     2
 -0.0028633144     1     8     8     4
 0.0006208474     1     8     8     6
 0.0012547402     1     8     8     9
 -0.0002144414     1     8     8    10
 0.0009555971     1     8     8    12
 -0.0016085520     1     8     8    16
 -0.0029149121     1     8     9     3
 -0.0005482030     1     8     9     7
 -0.0004766274     1     8     9    13
 0.0005261828     1     8    10     3
 0.0003041372     1     8    10     7
 0.0008268393     1     8    10    13
 0.0002360176     1     8    11    14
 -0.0006260837     1     8    12     3
 -0.0005671577     1     8    12     7
 -0.0009304854     1     8    12    13
 -0.0846824794     1     8    13     1
 -0.0066228153     1     8    13     2
 -0.0032771883     1     8    13     4
 0.0021075711     1     8    13     6
 0.0019403346     1     8    13     9
 0.0011475330     1     8    13    10
 0.0010443078     1     8    13    12
 -0.0048485725     1     8    13    16
 0.0010935281     1     8    14     5
 0.0006309548     1     8    14    11
 -0.0011812847     1     8    14    15
 -0.0011546500     1     8    15    14
 -0.0002733521     1     8    16     3
 -0.0001586799     1     8    16     7
 -0.0008119470     1     8    16    13
 0.1201518739     1     9     2     1
 0.0020065299     1     9     2     2
 -0.0004755797     1     9     2     4
 -0.0002788938     1     9     2     6
 -0.0009214695     1     9     2    10
 0.0003048718     1     9     2    12
 0.0009282796     1     9     2    16
 -0.0002095381     1     9     3     3
 -0.0006645917     1     9     3     7
 -0.0018655944     1     9     3     8
 -0.0009870974     1     9     3    13
 -0.0653692057     1     9     4     1
 -0.0080153836     1     9     4     2
 -0.0096757060     1     9     4     4
 0.0000916646     1     9     4     6
 0.0048457995     1     9     4    10
 -0.0015949442     1     9     4    12
 -0.0063847648     1     9     4    16
 -0.0120125242     1     9     5     5
 0.0091286721     1     9     5    11
 -0.0020583572     1     9     5    15
 -0.1071853987     1     9     6     1
 -0.0021126038     1     9     6     2
 -0.0029360795     1     9     6     4
 0.0003835759     1     9     6     6
 0.0010214816     1     9     6    10
 -0.0002026696     1     9     6    12
 -0.0015973792     1     9     6    16
 -0.0026508687     1     9     7     3
 -0.0009381940     1     9     7     7
 -0.0010811138     1     9     7     8
 -0.0020794483     1     9     7    13
 -0.0047272429     1     9     8     3
 -0.0016271129     1     9     8     7
 -0.0012547402     1     9     8     8
 -0.0024127125     1     9     8    13
 -0.4543800462     1     9     9     1
 -0.0016568096     1     9     9     2
 -0.0060698140     1     9     9     4
 -0.0006947912     1     9     9     6
 0.0035702814     1     9     9    10
 -0.0008305851     1     9     9    12
 -0.0026931785     1     9     9    16
 0.0560478793     1     9    10     1
 0.0043835542     1     9    10     2
 0.0068174730     1     9    10     4
 -0.0005827465     1     9    10     6
 -0.0040257556     1     9    10    10
 -0.0001039410     1     9    10    12
 0.0051305467     1     9    10    16
 0.0067002551     1     9    11     5
 -0.0051360638     1     9    11    11
 0.0003239832     1     9    11    15
 -0.0197611159     1     9    12     1
 -0.0010991140     1     9    12     2
 -0.0023499170     1     9    12     4
 0.0001435256     1     9    12     6
 0.0000739149     1     9    12    10
 0.0004968073     1     9    12    12
 -0.0005876038     1     9    12    16
 -0.0059306422     1     9    13     3
 -0.0026838778     1     9    13     7
 -0.0019403346     1     9    13     8
 -0.0051215177     1     9    13    13
 0.0009097037     1     9    14    14
 -0.0025024093     1     9    15     5
 0.0007576702     1     9    15    11
 0.0004013518     1     9    15    15
 0.0007121601     1     9    16     1
 -0.0017531940     1     9    16     2
 -0.0033247187     1     9    16     4
 0.0001300530     1     9    16     6
 0.0023805905     1     9    16    10
 0.0001852730     1     9    16    12
 -0.0029742077     1     9    16    16
 -0.0397886368     1    10     2     1
 -0.0056432080     1    10     2     2
 0.0041506891     1    10     2     4
 0.0014561789     1    10     2     6
 0.0009214695     1    10     2     9
 -0.0001536189     1    10     2    12
 -0.0015832916     1    10     2    16
 -0.0025000079     1    10     3     3
 0.0004896894     1    10     3     7
 0.0034761421     1    10     3     8
 -0.0000123379     1    10     3    13
 0.2768892105     1    10     4     1
 0.0228630501     1    10     4     2
 0.0063958499     1    10     4     4
 -0.0046586484     1    10     4     6
 -0.0048457995     1    10     4     9
 0.0009933557     1    10     4    12
 0.0102743616     1    10     4    16
 -0.0028924766     1    10     5     5
 0.0015286752     1    10     5    11
 0.0030795741     1    10     5    15
 0.0898925452     1    10     6     1
 0.0051881496     1    10     6     2
 0.0038214694     1    10     6     4
 -0.0018917949     1    10     6     6
 -0.0010214816     1    10     6     9
 -0.0001531062     1    10     6    12
 0.0029096942     1    10     6    16
 0.0002528262     1    10     7     3
 -0.0006036004     1    10     7     7
 0.0002618334     1    10     7     8
 -0.0001461333     1    10     7    13
 0.0039512058     1    10     8     3
 0.0005608318     1    10     8     7
 0.0002144414     1    10     8     8
 -0.0003163411     1    10     8    13
 0.0560478793     1    10     9     1
 0.0052974624     1    10     9     2
 0.0020301280     1    10     9     4
 -0.0016047296     1    10     9     6
 -0.0035702814     1    10     9     9
 -0.0001810817     1    10     9    12
 0.0027459984     1    10     9    16
 -0.5357604645     1    10    10     1
 -0.0134876622     1    10    10     2
 -0.0030169457     1    10    10     4
 0.0051702307     1    10    10     6
 0.0040257556     1    10    10     9
 0.0028536182     1    10    10    12
 -0.0081783251     1    10    10    16
 -0.0000989907     1    10    11     5
 -0.0000801785     1    10    11    11
 0.0004400028     1    10    11    15
 0.0456883676     1    10    12     1
 0.0025263494     1    10    12     2
 0.0058545874     1    10    12     4
 -0.0003933840     1    10    12     6
 -0.0000739149     1    10    12     9
 -0.0013171927     1    10    12    12
 0.0014233118     1    10    12    16
 -0.0012865027     1    10    13     3
 -0.0005270960     1    10    13     7
 -0.0011475330     1    10    13     8
 -0.0003723297     1    10    13    13
 -0.0023010451     1    10    14    14
 0.0027788376     1    10    15     5
 0.0007466955     1    10    15    11
 -0.0012503067     1    10    15    15
 0.1091956286     1    10    16     1
 0.0065666836     1    10    16     2
 0.0000613163     1    10    16     4
 -0.0025048153     1    10    16     6
 -0.0023805905     1    10    16     9
 -0.0019839449     1    10    16    12
 0.0045604818     1    10    16    16
 0.0058484241     1    11     2     5
 -0.0007637468     1    11     2    15
 -0.0037522816     1    11     3    14
 0.0011053454     1    11     4     5
 0.0036894439     1    11     4    15
 0.3576165922     1    11     5     1
 0.0296442628     1    11     5     2
 0.0090464341     1    11     5     4
 -0.0068296468     1    11     5     6
 -0.0091286721     1    11     5     9
 -0.0015286752     1    11     5    10
 -0.0050632569     1    11     5    12
 0.0087811044     1    11     5    16
 0.0023224736     1    11     6     5
 0.0004468033     1    11     6    15
 -0.0000510625     1    11     7    14
 -0.0003995314     1    11     8    14
 -0.0023792406     1    11     9     5
 -0.0004362042     1    11     9    15
 -0.0016516350     1    11    10     5
 -0.0003049890     1    11    10    15
 -0.6615343979     1    11    11     1
 -0.0191592410     1    11    11     2
 -0.0065272641     1    11    11     4
 0.0068947164     1    11    11     6
 0.0051360638     1    11    11     9
 0.0000801785     1    11    11    10
 0.0030850136     1    11    11    12
 -0.0128489451     1    11    11    16
 -0.0009599309     1    11    12     5
 0.0004442298     1    11    12    15
 -0.0002313692     1    11    13    14
 -0.0045101541     1    11    14     3
 -0.0003835423     1    11    14     7
 -0.0006309548     1    11    14     8
 -0.0008022396     1    11    14    13
 0.0299348875     1    11    15     1
 0.0008365654     1    11    15     2
 0.0049068699     1    11    15     4
 -0.0000003616     1    11    15     6
 -0.0007576702     1    11    15     9
 -0.0007466955     1    11    15    10
 0.0002602174     1    11    15    12
 -0.0000888687     1    11    15    16
 -0.0080880355     1    11    16     5
 -0.0014344340     1    11    16    15
 0.0704526600     1    12     2     1
 0.0015285386     1    12     2     2
 -0.0013597424     1    12     2     4
 -0.0004630823     1    12     2     6
 -0.0003048718     1    12     2     9
 0.0001536189     1    12     2    10
 0.0002795382     1    12     2    16
 -0.0050091670     1    12     3     3
 -0.0026002401     1    12     3     7
 -0.0029575295     1    12     3     8
 -0.0045668729     1    12     3    13
 -0.0417634328     1    12     4     1
 -0.0060410771     1    12     4     2
 -0.0002834611     1    12     4     4
 0.0015790096     1    12     4     6
 0.0015949442     1    12     4     9
 -0.0009933557     1    12     4    10
 -0.0021134789     1    12     4    16
 -0.0066188626     1    12     5     5
 0.0050632569     1    12     5    11
 -0.0012396267     1    12     5    15
 -0.0571405047     1    12     6     1
 -0.0014444124     1    12     6     2
 -0.0011535760     1    12     6     4
 0.0004330527     1    12     6     6
 0.0002026696     1    12     6     9
 0.0001531062     1    12     6    10
 -0.0007945108     1    12     6    16
 -0.0017207234     1    12     7     3
 -0.0005960363     1    12     7     7
 -0.0007095004     1    12     7     8
 -0.0013798210     1    12     7    13
 -0.0035487012     1    12     8     3
 -0.0012716138     1    12     8     7
 -0.0009555971     1    12     8     8
 -0.0019710740     1    12     8    13
 -0.0197611159     1    12     9     1
 -0.0014076338     1    12     9     2
 -0.0007589079     1    12     9     4
 0.0003476122     1    12     9     6
 0.0008305851     1    12     9     9
 0.0001810817     1    12     9    10
 -0.0007754646     1    12     9    16
 0.0456883676     1    12    10     1
 0.0027084583     1    12    10     2
 0.0048381094     1    12    10     4
 -0.0002422634     1    12    10     6
 0.0001039410     1    12    10     9
 -0.0028536182     1    12    10    10
 0.0034147093     1    12    10    16
 0.0040507515     1    12    11     5
 -0.0030850136     1    12    11    11
 0.0001876818     1    12    11    15
 -0.4314093851     1    12    12     1
 -0.0006241667     1    12    12     2
 -0.0034961201     1    12    12     4
 -0.0003925653     1    12    12     6