&FCI NORB= 14,NELEC= 10,MS2=0,
 ORBSYM=1,1,1,1,1,1,1,1,1,1,1,1,1,1
 ISYM=1,
&END
 0.9851650576     1     1     2     2
 -0.0000000004     1     1     2     3
 0.0668404307     1     1     2     4
 0.1308798102     1     1     2     6
 -0.0000000093     1     1     2     7
 -0.0000000846     1     1     2     8
 0.0747668184     1     1     2     9
 0.0793946335     1     1     2    10
 -0.0000000038     1     1     2    12
 0.0851594183     1     1     2    13
 -0.0000000004     1     1     3     2
 0.8618198587     1     1     3     3
 -0.0000000131     1     1     3     4
 -0.0000000162     1     1     3     6
 -0.1508662362     1     1     3     7
 0.0848897993     1     1     3     8
 0.0000000473     1     1     3     9
 0.0000000256     1     1     3    10
 0.2327718040     1     1     3    12
 0.0000000491     1     1     3    13
 0.0668404307     1     1     4     2
 -0.0000000131     1     1     4     3
 0.9512173604     1     1     4     4
 -0.0719672833     1     1     4     6
 -0.0000000090     1     1     4     7
 0.0000000058     1     1     4     8
 0.0845894600     1     1     4     9
 -0.2213032672     1     1     4    10
 0.0000000204     1     1     4    12
 -0.0495883115     1     1     4    13
 0.9999942100     1     1     5     5
 -0.2967401485     1     1     5    11
 -0.0000000332     1     1     5    14
 0.1308798102     1     1     6     2
 -0.0000000162     1     1     6     3
 -0.0719672833     1     1     6     4
 0.3188312561     1     1     6     6
 0.0000000037     1     1     6     7
 -0.0000000764     1     1     6     8
 0.0410584958     1     1     6     9
 0.1073462538     1     1     6    10
 -0.0000000224     1     1     6    12
 0.0690725789     1     1     6    13
 -0.0000000093     1     1     7     2
 -0.1508662362     1     1     7     3
 -0.0000000090     1     1     7     4
 0.0000000037     1     1     7     6
 0.2853563408     1     1     7     7
 -0.0693062394     1     1     7     8
 -0.0000000474     1     1     7     9
 -0.0000000160     1     1     7    10
 -0.1486004258     1     1     7    12
 -0.0000000343     1     1     7    13
 -0.0000000846     1     1     8     2
 0.0848897993     1     1     8     3
 0.0000000058     1     1     8     4
 -0.0000000764     1     1     8     6
 -0.0693062394     1     1     8     7
 0.3904941819     1     1     8     8
 0.0000000108     1     1     8     9
 -0.0000000289     1     1     8    10
 0.0805029558     1     1     8    12
 0.0000000036     1     1     8    13
 0.0747668184     1     1     9     2
 0.0000000473     1     1     9     3
 0.0845894600     1     1     9     4
 0.0410584958     1     1     9     6
 -0.0000000474     1     1     9     7
 0.0000000108     1     1     9     8
 0.3709810957     1     1     9     9
 0.0019438925     1     1     9    10
 0.0000000603     1     1     9    12
 -0.0023793427     1     1     9    13
 0.0793946335     1     1    10     2
 0.0000000256     1     1    10     3
 -0.2213032672     1     1    10     4
 0.1073462538     1     1    10     6
 -0.0000000160     1     1    10     7
 -0.0000000289     1     1    10     8
 0.0019438925     1     1    10     9
 0.4686804503     1     1    10    10
 0.0000000114     1     1    10    12
 0.0511613434     1     1    10    13
 -0.2967401485     1     1    11     5
 0.5418414284     1     1    11    11
 0.0000000216     1     1    11    14
 -0.0000000038     1     1    12     2
 0.2327718040     1     1    12     3
 0.0000000204     1     1    12     4
 -0.0000000224     1     1    12     6
 -0.1486004258     1     1    12     7
 0.0805029558     1     1    12     8
 0.0000000603     1     1    12     9
 0.0000000114     1     1    12    10
 0.4762734082     1     1    12    12
 0.0000000224     1     1    12    13
 0.0851594183     1     1    13     2
 0.0000000491     1     1    13     3
 -0.0495883115     1     1    13     4
 0.0690725789     1     1    13     6
 -0.0000000343     1     1    13     7
 0.0000000036     1     1    13     8
 -0.0023793427     1     1    13     9
 0.0511613434     1     1    13    10
 0.0000000224     1     1    13    12
 0.3792407695     1     1    13    13
 -0.0000000332     1     1    14     5
 0.0000000216     1     1    14    11
 0.3606235404     1     1    14    14
 -0.9851650576     1     2     2     1
 -0.0000000011     1     2     2     3
 0.0062073236     1     2     2     4
 -0.0011749379     1     2     2     6
 0.0000000004     1     2     2     7
 0.0011848057     1     2     2     9
 -0.0040508967     1     2     2    10
 -0.0000000005     1     2     2    12
 -0.0013756200     1     2     2    13
 0.0000000004     1     2     3     1
 -0.0305636509     1     2     3     3
 0.0000000009     1     2     3     4
 0.0000000010     1     2     3     6
 0.0110317817     1     2     3     7
 -0.0091561589     1     2     3     8
 -0.0000000058     1     2     3     9
 -0.0000000030     1     2     3    10
 -0.0211030316     1     2     3    12
 -0.0000000047     1     2     3    13
 -0.0668404307     1     2     4     1
 0.0000000008     1     2     4     3
 -0.0361693788     1     2     4     4
 0.0065887082     1     2     4     6
 0.0000000005     1     2     4     7
 -0.0000000024     1     2     4     8
 -0.0047411090     1     2     4     9
 0.0187710276     1     2     4    10
 -0.0000000019     1     2     4    12
 0.0064403616     1     2     4    13
 -0.0411390450     1     2     5     5
 0.0245872460     1     2     5    11
 0.0000000029     1     2     5    14
 -0.1308798102     1     2     6     1
 0.0000000006     1     2     6     3
 0.0063283749     1     2     6     4
 -0.0014841853     1     2     6     6
 -0.0000000005     1     2     6     7
 0.0000000010     1     2     6     8
 0.0007214902     1     2     6     9
 -0.0040003890     1     2     6    10
 0.0000000011     1     2     6    12
 -0.0014740952     1     2     6    13
 0.0000000093     1     2     7     1
 0.0082943698     1     2     7     3
 0.0000000003     1     2     7     4
 -0.0000000006     1     2     7     6
 -0.0036137186     1     2     7     7
 0.0029468830     1     2     7     8
 0.0000000019     1     2     7     9
 0.0000000006     1     2     7    10
 0.0071048169     1     2     7    12
 0.0000000015     1     2     7    13
 0.0000000846     1     2     8     1
 -0.0062166376     1     2     8     3
 -0.0000000026     1     2     8     4
 0.0000000011     1     2     8     6
 0.0026235471     1     2     8     7
 -0.0022642378     1     2     8     8
 -0.0000000019     1     2     8     9
 0.0000000011     1     2     8    10
 -0.0048261536     1     2     8    12
 -0.0000000003     1     2     8    13
 -0.0747668184     1     2     9     1
 -0.0000000039     1     2     9     3
 -0.0030176117     1     2     9     4
 0.0003276184     1     2     9     6
 0.0000000017     1     2     9     7
 -0.0000000016     1     2     9     8
 -0.0006247918     1     2     9     9
 0.0021182122     1     2     9    10
 -0.0000000031     1     2     9    12
 0.0003189765     1     2     9    13
 -0.0793946335     1     2    10     1
 -0.0000000020     1     2    10     3
 0.0150511845     1     2    10     4
 -0.0032109213     1     2    10     6
 0.0000000005     1     2    10     7
 0.0000000005     1     2    10     8
 0.0027448247     1     2    10     9
 -0.0099394793     1     2    10    10
 -0.0000000004     1     2    10    12
 -0.0029675552     1     2    10    13
 0.0182612534     1     2    11     5
 -0.0139675498     1     2    11    11
 -0.0000000016     1     2    11    14
 0.0000000038     1     2    12     1
 -0.0144248402     1     2    12     3
 -0.0000000013     1     2    12     4
 0.0000000011     1     2    12     6
 0.0064878372     1     2    12     7
 -0.0049510442     1     2    12     8
 -0.0000000032     1     2    12     9
 -0.0000000005     1     2    12    10
 -0.0123700004     1     2    12    12
 -0.0000000023     1     2    12    13
 -0.0851594183     1     2    13     1
 -0.0000000032     1     2    13     3
 0.0050022408     1     2    13     4
 -0.0011455259     1     2    13     6
 0.0000000014     1     2    13     7
 -0.0000000005     1     2    13     8
 0.0005266238     1     2    13     9
 -0.0028696187     1     2    13    10
 -0.0000000024     1     2    13    12
 -0.0009694836     1     2    13    13
 0.0000000020     1     2    14     5
 -0.0000000015     1     2    14    11
 0.0002239381     1     2    14    14
 0.0000000004     1     3     2     1
 0.0000000011     1     3     2     2
 0.0000000002     1     3     2     4
 0.0000000003     1     3     2     6
 0.0020896768     1     3     2     7
 -0.0024630869     1     3     2     8
 -0.0000000015     1     3     2     9
 -0.0000000007     1     3     2    10
 -0.0055443875     1     3     2    12
 -0.0000000011     1     3     2    13
 -0.8618198587     1     3     3     1
 0.0305636509     1     3     3     2
 0.0095089931     1     3     3     4
 0.0041424319     1     3     3     6
 -0.0000000006     1     3     3     7
 -0.0000000011     1     3     3     8
 0.0017734210     1     3     3     9
 -0.0018392298     1     3     3    10
 -0.0000000002     1     3     3    12
 0.0045453394     1     3     3    13
 0.0000000131     1     3     4     1
 -0.0000000008     1     3     4     2
 0.0000000010     1     3     4     4
 -0.0000000006     1     3     4     6
 -0.0010719707     1     3     4     7
 0.0040710570     1     3     4     8
 0.0000000031     1     3     4     9
 0.0000000004     1     3     4    10
 0.0013523580     1     3     4    12
 0.0000000004     1     3     4    13
 0.0000000015     1     3     5     5
 -0.0000000012     1     3     5    11
 0.0033398351     1     3     5    14
 0.0000000162     1     3     6     1
 -0.0000000006     1     3     6     2
 -0.0000000004     1     3     6     4
 -0.0000000002     1     3     6     6
 -0.0019065634     1     3     6     7
 -0.0003247831     1     3     6     8
 -0.0000000006     1     3     6     9
 0.0017972722     1     3     6    12
 0.0000000002     1     3     6    13
 0.1508662362     1     3     7     1
 -0.0082943698     1     3     7     2
 -0.0027388561     1     3     7     4
 -0.0037395745     1     3     7     6
 0.0000000004     1     3     7     7
 0.0000000018     1     3     7     8
 -0.0018544222     1     3     7     9
 -0.0011569621     1     3     7    10
 -0.0000000002     1     3     7    12
 -0.0014748384     1     3     7    13
 -0.0848897993     1     3     8     1
 0.0062166376     1     3     8     2
 0.0019238236     1     3     8     4
 0.0019385084     1     3     8     6
 0.0000000012     1     3     8     7
 -0.0000000032     1     3     8     8
 0.0007812393     1     3     8     9
 0.0040487410     1     3     8    10
 -0.0000000039     1     3     8    12
 0.0030622827     1     3     8    13
 -0.0000000473     1     3     9     1
 0.0000000039     1     3     9     2
 0.0000000012     1     3     9     4
 0.0000000010     1     3     9     6
 -0.0014691282     1     3     9     7
 0.0008805289     1     3     9     8
 0.0000000008     1     3     9     9
 0.0000000033     1     3     9    10
 0.0040830639     1     3     9    12
 0.0000000030     1     3     9    13
 -0.0000000256     1     3    10     1
 0.0000000020     1     3    10     2
 0.0000000001     1     3    10     4
 0.0000000007     1     3    10     6
 -0.0009251101     1     3    10     7
 0.0017625528     1     3    10     8
 0.0000000016     1     3    10     9
 0.0000000022     1     3    10    10
 0.0017750727     1     3    10    12
 0.0000000015     1     3    10    13
 -0.0000000006     1     3    11     5
 0.0009457381     1     3    11    14
 -0.2327718040     1     3    12     1
 0.0144248402     1     3    12     2
 0.0046887812     1     3    12     4
 0.0053260947     1     3    12     6
 -0.0000000007     1     3    12     7
 -0.0000000045     1     3    12     8
 0.0048877436     1     3    12     9
 0.0021920048     1     3    12    10
 0.0000000006     1     3    12    12
 0.0035917781     1     3    12    13
 -0.0000000491     1     3    13     1
 0.0000000032     1     3    13     2
 0.0000000009     1     3    13     4
 0.0000000012     1     3    13     6
 0.0004882732     1     3    13     7
 0.0008050743     1     3    13     8
 0.0000000017     1     3    13     9
 0.0000000011     1     3    13    10
 -0.0001645913     1     3    13    12
 0.0000000009     1     3    13    13
 -0.0003292316     1     3    14     5
 0.0033009554     1     3    14    11
 0.0000000003     1     3    14    14
 -0.0668404307     1     4     2     1
 -0.0062073236     1     4     2     2
 -0.0000000002     1     4     2     3
 -0.0002262804     1     4     2     6
 0.0000000002     1     4     2     7
 0.0000000004     1     4     2     8
 -0.0014690184     1     4     2     9
 0.0025501976     1     4     2    10
 -0.0000000005     1     4     2    12
 0.0010555689     1     4     2    13
 0.0000000131     1     4     3     1
 -0.0000000009     1     4     3     2
 -0.0095089931     1     4     3     3
 -0.0000000001     1     4     3     6
 0.0018039420     1     4     3     7
 0.0021245935     1     4     3     8
 0.0000000018     1     4     3     9
 0.0000000003     1     4     3    10
 -0.0036306182     1     4     3    12
 -0.0000000006     1     4     3    13
 -0.9512173604     1     4     4     1
 0.0361693788     1     4     4     2
 -0.0000000010     1     4     4     3
 0.0085337371     1     4     4     6
 -0.0000000003     1     4     4     7
 -0.0000000065     1     4     4     8
 0.0049759642     1     4     4     9
 0.0088689141     1     4     4    10
 -0.0000000001     1     4     4    12
 0.0029216401     1     4     4    13
 -0.0127553396     1     4     5     5
 0.0072674831     1     4     5    11
 0.0000000011     1     4     5    14
 0.0719672833     1     4     6     1
 -0.0063283749     1     4     6     2
 0.0000000004     1     4     6     3
 -0.0032998860     1     4     6     6
 -0.0000000002     1     4     6     7
 0.0000000014     1     4     6     8
 -0.0002102086     1     4     6     9
 -0.0038067816     1     4     6    10
 0.0000000005     1     4     6    12
 -0.0016095333     1     4     6    13
 0.0000000090     1     4     7     1
 -0.0000000003     1     4     7     2
 0.0027388561     1     4     7     3
 -0.0000000003     1     4     7     6
 -0.0020340497     1     4     7     7
 0.0009768294     1     4     7     8
 0.0000000005     1     4     7     9
 0.0000000002     1     4     7    10
 0.0023199305     1     4     7    12
 0.0000000005     1     4     7    13
 -0.0000000058     1     4     8     1
 0.0000000026     1     4     8     2
 -0.0019238236     1     4     8     3
 0.0000000009     1     4     8     6
 0.0022031293     1     4     8     7
 -0.0013302699     1     4     8     8
 0.0000000011     1     4     8     9
 0.0000000022     1     4     8    10
 -0.0052052951     1     4     8    12
 -0.0000000009     1     4     8    13
 -0.0845894600     1     4     9     1
 0.0030176117     1     4     9     2
 -0.0000000012     1     4     9     3
 0.0018332938     1     4     9     6
 0.0000000014     1     4     9     7
 -0.0000000002     1     4     9     8
 -0.0005824762     1     4     9     9
 -0.0007993143     1     4     9    10
 -0.0000000042     1     4     9    12
 0.0017438340     1     4     9    13
 0.2213032672     1     4    10     1
 -0.0150511845     1     4    10     2
 -0.0000000001     1     4    10     3
 -0.0066447994     1     4    10     6
 0.0000000008     1     4    10     7
 0.0000000050     1     4    10     8
 -0.0046092520     1     4    10     9
 -0.0049514735     1     4    10    10
 -0.0000000008     1     4    10    12
 -0.0046823026     1     4    10    13
 0.0060017044     1     4    11     5
 -0.0044118054     1     4    11    11
 -0.0000000002     1     4    11    14
 -0.0000000204     1     4    12     1
 0.0000000013     1     4    12     2
 -0.0046887812     1     4    12     3
 0.0000000009     1     4    12     6
 0.0020706915     1     4    12     7
 -0.0026836796     1     4    12     8
 -0.0000000019     1     4    12     9
 0.0000000002     1     4    12    10
 -0.0037573910     1     4    12    12
 -0.0000000001     1     4    12    13
 0.0495883115     1     4    13     1
 -0.0050022408     1     4    13     2
 -0.0000000009     1     4    13     3
 -0.0026478687     1     4    13     6
 0.0000000006     1     4    13     7
 0.0000000006     1     4    13     8
 0.0004972564     1     4    13     9
 -0.0048376350     1     4    13    10
 -0.0000000005     1     4    13    12
 -0.0031157400     1     4    13    13
 0.0000000006     1     4    14     5
 -0.0022937745     1     4    14    14
 0.0049007493     1     5     2    11
 0.0000000007     1     5     2    14
 -0.0000000006     1     5     3    11
 0.0037389657     1     5     3    14
 0.0009009351     1     5     4    11
 0.0000000004     1     5     4    14
 -0.9999942100     1     5     5     1
 0.0411390450     1     5     5     2
 -0.0000000015     1     5     5     3
 0.0127553396     1     5     5     4
 0.0082277032     1     5     5     6
 -0.0000000003     1     5     5     7
 -0.0000000093     1     5     5     8
 0.0098915738     1     5     5     9
 0.0040141562     1     5     5    10
 -0.0000000007     1     5     5    12
 0.0072835826     1     5     5    13
 -0.0021153268     1     5     6    11
 -0.0000000003     1     5     6    14
 0.0000000001     1     5     7    11
 0.0003984086     1     5     7    14
 -0.0000000016     1     5     8    11
 0.0004383459     1     5     8    14
 0.0018335823     1     5     9    11
 0.0000000006     1     5     9    14
 0.0004259563     1     5    10    11
 0.0000000001     1     5    10    14
 0.2967401485     1     5    11     1
 -0.0182612534     1     5    11     2
 0.0000000006     1     5    11     3
 -0.0060017044     1     5    11     4
 -0.0072395877     1     5    11     6
 0.0000000002     1     5    11     7
 0.0000000042     1     5    11     8
 -0.0041773435     1     5    11     9
 -0.0023511960     1     5    11    10
 0.0000000007     1     5    11    12
 -0.0041236914     1     5    11    13
 0.0000118065     1     5    12    14
 0.0004313554     1     5    13    11
 0.0000000001     1     5    13    14
 0.0000000332     1     5    14     1
 -0.0000000020     1     5    14     2
 0.0003292316     1     5    14     3
 -0.0000000006     1     5    14     4
 -0.0000000007     1     5    14     6
 0.0016467851     1     5    14     7
 -0.0005195256     1     5    14     8
 -0.0000000007     1     5    14     9
 -0.0000000003     1     5    14    10
 -0.0023486435     1     5    14    12
 -0.0000000009     1     5    14    13
 -0.1308798102     1     6     2     1
 0.0011749379     1     6     2     2
 -0.0000000003     1     6     2     3
 0.0002262804     1     6     2     4
 0.0000000001     1     6     2     7
 -0.0000000001     1     6     2     8
 0.0003885761     1     6     2     9
 -0.0008124786     1     6     2    10
 0.0000000001     1     6     2    12
 -0.0003479620     1     6     2    13
 0.0000000162     1     6     3     1
 -0.0000000010     1     6     3     2
 -0.0041424319     1     6     3     3
 0.0000000001     1     6     3     4
 0.0018162442     1     6     3     7
 -0.0022717787     1     6     3     8
 -0.0000000015     1     6     3     9
 -0.0000000007     1     6     3    10
 -0.0035446150     1     6     3    12
 -0.0000000010     1     6     3    13
 0.0719672833     1     6     4     1
 -0.0065887082     1     6     4     2
 0.0000000006     1     6     4     3
 -0.0085337371     1     6     4     4
 0.0000000001     1     6     4     7
 0.0000000005     1     6     4     8
 -0.0020479757     1     6     4     9
 0.0028913776     1     6     4    10
 -0.0000000004     1     6     4    12
 0.0010466152     1     6     4    13
 -0.0082277032     1     6     5     5
 0.0050735913     1     6     5    11
 0.0000000004     1     6     5    14
 -0.3188312561     1     6     6     1
 0.0014841853     1     6     6     2
 0.0000000002     1     6     6     3
 0.0032998860     1     6     6     4
 -0.0000000001     1     6     6     7
 0.0000000001     1     6     6     8
 0.0004647363     1     6     6     9
 -0.0010801628     1     6     6    10
 0.0000000004     1     6     6    12
 -0.0002913359     1     6     6    13
 -0.0000000037     1     6     7     1
 0.0000000006     1     6     7     2
 0.0037395745     1     6     7     3
 0.0000000003     1     6     7     4
 -0.0012439969     1     6     7     7
 0.0011024715     1     6     7     8
 0.0000000008     1     6     7     9
 0.0000000002     1     6     7    10
 0.0026943453     1     6     7    12
 0.0000000006     1     6     7    13
 0.0000000764     1     6     8     1
 -0.0000000011     1     6     8     2
 -0.0019385084     1     6     8     3
 -0.0000000009     1     6     8     4
 0.0004576993     1     6     8     7
 -0.0004321759     1     6     8     8
 -0.0000000009     1     6     8     9
 -0.0000000004     1     6     8    10
 -0.0006522563     1     6     8    12
 -0.0000000002     1     6     8    13
 -0.0410584958     1     6     9     1
 -0.0003276184     1     6     9     2
 -0.0000000010     1     6     9     3
 -0.0018332938     1     6     9     4
 0.0000000002     1     6     9     7
 -0.0000000006     1     6     9     8
 -0.0001072161     1     6     9     9
 0.0012712013     1     6     9    10
 -0.0000000003     1     6     9    12
 -0.0000382485     1     6     9    13
 -0.1073462538     1     6    10     1
 0.0032109213     1     6    10     2
 -0.0000000007     1     6    10     3
 0.0066447994     1     6    10     4
 -0.0000000008     1     6    10     8
 0.0018997525     1     6    10     9
 -0.0028494956     1     6    10    10
 0.0000000001     1     6    10    12
 -0.0002773546     1     6    10    13
 0.0072395877     1     6    11     5
 -0.0047174266     1     6    11    11
 -0.0000000006     1     6    11    14
 0.0000000224     1     6    12     1
 -0.0000000011     1     6    12     2
 -0.0053260947     1     6    12     3
 -0.0000000009     1     6    12     4
 0.0020599702     1     6    12     7
 -0.0013892264     1     6    12     8
 -0.0000000011     1     6    12     9
 -0.0000000002     1     6    12    10
 -0.0039591096     1     6    12    12
 -0.0000000010     1     6    12    13
 -0.0690725789     1     6    13     1
 0.0011455259     1     6    13     2
 -0.0000000012     1     6    13     3
 0.0026478687     1     6    13     4
 0.0000000003     1     6    13     7
 -0.0000000004     1     6    13     8
 0.0002270419     1     6    13     9
 -0.0004895826     1     6    13    10
 -0.0000000008     1     6    13    12
 0.0001806948     1     6    13    13
 0.0000000007     1     6    14     5
 -0.0000000007     1     6    14    11
 0.0005203296     1     6    14    14
 0.0000000093     1     7     2     1
 -0.0000000004     1     7     2     2
 -0.0020896768     1     7     2     3
 -0.0000000002     1     7     2     4
 -0.0000000001     1     7     2     6
 0.0003212490     1     7     2     8
 0.0000000002     1     7     2     9
 0.0000000001     1     7     2    10
 0.0005860367     1     7     2    12
 0.0000000001     1     7     2    13
 0.1508662362     1     7     3     1
 -0.0110317817     1     7     3     2
 0.0000000006     1     7     3     3
 -0.0018039420     1     7     3     4
 -0.0018162442     1     7     3     6
 0.0000000005     1     7     3     8
 -0.0003765505     1     7     3     9
 -0.0001779639     1     7     3    10
 0.0000000005     1     7     3    12
 -0.0019457883     1     7     3    13
 0.0000000090     1     7     4     1
 -0.0000000005     1     7     4     2
 0.0010719707     1     7     4     3
 0.0000000003     1     7     4     4
 -0.0000000001     1     7     4     6
 -0.0012371889     1     7     4     8
 -0.0000000010     1     7     4     9
 -0.0000000005     1     7     4    10
 0.0002353092     1     7     4    12
 -0.0000000001     1     7     4    13
 0.0000000003     1     7     5     5
 -0.0000000001     1     7     5    11
 -0.0012635315     1     7     5    14
 -0.0000000037     1     7     6     1
 0.0000000005     1     7     6     2
 0.0019065634     1     7     6     3
 0.0000000002     1     7     6     4
 0.0000000001     1     7     6     6
 0.0006437265     1     7     6     8
 0.0000000006     1     7     6     9
 0.0000000002     1     7     6    10
 0.0006309964     1     7     6    12
 0.0000000003     1     7     6    13
 -0.2853563408     1     7     7     1
 0.0036137186     1     7     7     2
 -0.0000000004     1     7     7     3
 0.0020340497     1     7     7     4
 0.0012439969     1     7     7     6
 -0.0000000008     1     7     7     8
 0.0008438414     1     7     7     9
 -0.0000165792     1     7     7    10
 -0.0000000002     1     7     7    12
 0.0004310958     1     7     7    13
 0.0693062394     1     7     8     1
 -0.0026235471     1     7     8     2
 -0.0000000012     1     7     8     3
 -0.0022031293     1     7     8     4
 -0.0004576993     1     7     8     6
 0.0000000007     1     7     8     8
 -0.0004919270     1     7     8     9
 -0.0007138324     1     7     8    10
 0.0000000006     1     7     8    12
 -0.0008931834     1     7     8    13
 0.0000000474     1     7     9     1
 -0.0000000017     1     7     9     2
 0.0014691282     1     7     9     3
 -0.0000000014     1     7     9     4
 -0.0000000002     1     7     9     6
 0.0000939846     1     7     9     8
 -0.0000000001     1     7     9     9
 -0.0000000006     1     7     9    10
 -0.0004748474     1     7     9    12
 -0.0000000007     1     7     9    13
 0.0000000160     1     7    10     1
 -0.0000000005     1     7    10     2
 0.0009251101     1     7    10     3
 -0.0000000008     1     7    10     4
 -0.0003885692     1     7    10     8
 -0.0000000004     1     7    10     9
 -0.0000000002     1     7    10    10
 -0.0000126311     1     7    10    12
 -0.0000000002     1     7    10    13
 -0.0000000002     1     7    11     5
 0.0000000003     1     7    11    11
 -0.0003464444     1     7    11    14
 0.1486004258     1     7    12     1
 -0.0064878372     1     7    12     2
 0.0000000007     1     7    12     3
 -0.0020706915     1     7    12     4
 -0.0020599702     1     7    12     6
 0.0000000020     1     7    12     8
 -0.0018967161     1     7    12     9
 -0.0008253252     1     7    12    10
 0.0000000003     1     7    12    12
 -0.0013918005     1     7    12    13
 0.0000000343     1     7    13     1
 -0.0000000014     1     7    13     2
 -0.0004882732     1     7    13     3
 -0.0000000006     1     7    13     4
 -0.0000000003     1     7    13     6
 -0.0004300882     1     7    13     8
 -0.0000000007     1     7    13     9
 -0.0000000002     1     7    13    10
 -0.0002687082     1     7    13    12
 -0.0000000003     1     7    13    13
 -0.0016467851     1     7    14     5
 -0.0001099094     1     7    14    11
 0.0000000846     1     8     2     1
 0.0024630869     1     8     2     3
 -0.0000000004     1     8     2     4
 0.0000000001     1     8     2     6
 -0.0003212490     1     8     2     7
 -0.0000000002     1     8     2     9
 0.0000000005     1     8     2    10
 0.0001451113     1     8     2    12
 0.0000000003     1     8     2    13
 -0.0848897993     1     8     3     1
 0.0091561589     1     8     3     2
 0.0000000011     1     8     3     3
 -0.0021245935     1     8     3     4
 0.0022717787     1     8     3     6
 -0.0000000005     1     8     3     7
 -0.0000805567     1     8     3     9
 0.0022756536     1     8     3    10
 0.0000000006     1     8     3    12
 0.0022579031     1     8     3    13
 -0.0000000058     1     8     4     1
 0.0000000024     1     8     4     2
 -0.0040710570     1     8     4     3
 0.0000000065     1     8     4     4
 -0.0000000005     1     8     4     6
 0.0012371889     1     8     4     7
 0.0000000013     1     8     4     9
 -0.0000000029     1     8     4    10
 -0.0025245677     1     8     4    12
 -0.0000000015     1     8     4    13
 0.0000000093     1     8     5     5
 -0.0000000059     1     8     5    11
 0.0009392587     1     8     5    14
 0.0000000764     1     8     6     1
 -0.0000000010     1     8     6     2
 0.0003247831     1     8     6     3
 -0.0000000014     1     8     6     4
 -0.0000000001     1     8     6     6
 -0.0006437265     1     8     6     7
 -0.0000000003     1     8     6     9
 0.0000000004     1     8     6    10
 0.0007397018     1     8     6    12
 0.0000000002     1     8     6    13
 0.0693062394     1     8     7     1
 -0.0029468830     1     8     7     2
 -0.0000000018     1     8     7     3
 -0.0009768294     1     8     7     4
 -0.0011024715     1     8     7     6
 0.0000000008     1     8     7     7
 -0.0005854983     1     8     7     9
 -0.0003288161     1     8     7    10
 -0.0000000014     1     8     7    12
 -0.0004653593     1     8     7    13
 -0.3904941819     1     8     8     1
 0.0022642378     1     8     8     2
 0.0000000032     1     8     8     3
 0.0013302699     1     8     8     4
 0.0004321759     1     8     8     6
 -0.0000000007     1     8     8     7
 0.0003332386     1     8     8     9
 0.0007882184     1     8     8    10
 0.0000000008     1     8     8    12
 0.0007495595     1     8     8    13
 -0.0000000108     1     8     9     1
 0.0000000016     1     8     9     2
 -0.0008805289     1     8     9     3
 0.0000000002     1     8     9     4
 0.0000000006     1     8     9     6
 -0.0000939846     1     8     9     7
 0.0000000008     1     8     9    10
 0.0005403998     1     8     9    12
 0.0000000010     1     8     9    13
 0.0000000289     1     8    10     1
 -0.0000000005     1     8    10     2
 -0.0017625528     1     8    10     3
 -0.0000000050     1     8    10     4
 0.0000000008     1     8    10     6
 0.0003885692     1     8    10     7
 -0.0000000010     1     8    10     9