&FCI NORB=  6,NELEC=  6,MS2=0,
 ORBSYM=1,1,1,1,1,1
 ISYM=1,
&END
 0.1367514870     1     1     2     2
 0.0163225882     1     1     2     4
 0.0087631387     1     1     2     6
 0.1745895748     1     1     3     3
 -0.0324541107     1     1     3     5
 0.0163225882     1     1     4     2
 0.1911999243     1     1     4     4
 -0.0386550106     1     1     4     6
 -0.0324541107     1     1     5     3
 0.1872689547     1     1     5     5
 0.0087631387     1     1     6     2
 -0.0386550106     1     1     6     4
 0.2148117473     1     1     6     6
 -0.1367514870     1     2     2     1
 -0.0492171717     1     2     2     3
 0.0010842285     1     2     2     5
 0.0444419894     1     2     3     4
 -0.0214268356     1     2     3     6
 -0.0163225882     1     2     4     1
 0.0122082576     1     2     4     3
 0.0507352060     1     2     4     5
 0.0359908382     1     2     5     4
 0.0559885984     1     2     5     6
 -0.0087631387     1     2     6     1
 -0.0156152624     1     2     6     3
 0.0448999112     1     2     6     5
 0.0492171717     1     3     2     2
 0.0322337318     1     3     2     4
 -0.0058115732     1     3     2     6
 -0.1745895748     1     3     3     1
 -0.0320712505     1     3     3     5
 -0.0122082576     1     3     4     2
 0.0104213535     1     3     4     4
 -0.0365250981     1     3     4     6
 0.0324541107     1     3     5     1
 0.0010230669     1     3     5     5
 0.0156152624     1     3     6     2
 -0.0153853256     1     3     6     4
 0.0218326417     1     3     6     6
 -0.0163225882     1     4     2     1
 -0.0322337318     1     4     2     3
 0.0147443678     1     4     2     5
 -0.0444419894     1     4     3     2
 -0.0211397725     1     4     3     6
 -0.1911999243     1     4     4     1
 -0.0104213535     1     4     4     3
 0.0014006221     1     4     4     5
 -0.0359908382     1     4     5     2
 0.0103672043     1     4     5     6
 0.0386550106     1     4     6     1
 0.0153853256     1     4     6     3
 0.0093275696     1     4     6     5
 -0.0010842285     1     5     2     2
 -0.0147443678     1     5     2     4
 0.0110886872     1     5     2     6
 0.0324541107     1     5     3     1
 0.0320712505     1     5     3     3
 -0.0507352060     1     5     4     2
 -0.0014006221     1     5     4     4
 0.0010396347     1     5     4     6
 -0.1872689547     1     5     5     1
 -0.0010230669     1     5     5     3
 -0.0448999112     1     5     6     2
 -0.0093275696     1     5     6     4
 0.0052480590     1     5     6     6
 -0.0087631387     1     6     2     1
 0.0058115732     1     6     2     3
 -0.0110886872     1     6     2     5
 0.0214268356     1     6     3     2
 0.0211397725     1     6     3     4
 0.0386550106     1     6     4     1
 0.0365250981     1     6     4     3
 -0.0010396347     1     6     4     5
 -0.0559885984     1     6     5     2
 -0.0103672043     1     6     5     4
 -0.2148117473     1     6     6     1
 -0.0218326417     1     6     6     3
 -0.0052480590     1     6     6     5
 -0.1367514870     2     1     1     2
 -0.0163225882     2     1     1     4
 -0.0087631387     2     1     1     6
 -0.0492171717     2     1     3     2
 0.0122082576     2     1     3     4
 -0.0156152624     2     1     3     6
 0.0444419894     2     1     4     3
 0.0359908382     2     1     4     5
 0.0010842285     2     1     5     2
 0.0507352060     2     1     5     4
 0.0448999112     2     1     5     6
 -0.0214268356     2     1     6     3
 0.0559885984     2     1     6     5
 0.1367514870     2     2     1     1
 0.0492171717     2     2     1     3
 -0.0010842285     2     2     1     5
 0.0492171717     2     2     3     1
 0.1421728418     2     2     3     3
 -0.0077982556     2     2     3     5
 0.1731431472     2     2     4     4
 -0.0075050357     2     2     4     6
 -0.0010842285     2     2     5     1
 -0.0077982556     2     2     5     3
 0.1822915648     2     2     5     5
 -0.0075050357     2     2     6     4
 0.1858406197     2     2     6     6
 -0.0492171717     2     3     1     2
 -0.0322337318     2     3     1     4
 0.0058115732     2     3     1     6
 -0.1421728418     2     3     3     2
 -0.0570910785     2     3     3     4
 0.0043052261     2     3     3     6
 -0.0444419894     2     3     4     1
 -0.0565108485     2     3     4     5
 0.0077982556     2     3     5     2
 -0.0299766005     2     3     5     4
 -0.0503902933     2     3     5     6
 0.0214268356     2     3     6     1
 -0.0327065234     2     3     6     5
 0.0163225882     2     4     1     1
 0.0322337318     2     4     1     3
 -0.0147443678     2     4     1     5
 -0.0122082576     2     4     3     1
 0.0570910785     2     4     3     3
 -0.0265342480     2     4     3     5
 -0.1731431472     2     4     4     2
 -0.0367155440     2     4     4     6
 -0.0507352060     2     4     5     1
 0.0299766005     2     4     5     3
 0.0042118747     2     4     5     5
 0.0075050357     2     4     6     2
 0.0204783365     2     4     6     6
 0.0010842285     2     5     1     2
 0.0147443678     2     5     1     4
 -0.0110886872     2     5     1     6
 0.0077982556     2     5     3     2
 0.0265342480     2     5     3     4
 -0.0176837699     2     5     3     6
 -0.0359908382     2     5     4     1
 0.0565108485     2     5     4     3
 -0.1822915648     2     5     5     2
 -0.0042118747     2     5     5     4
 -0.0069915844     2     5     5     6
 -0.0559885984     2     5     6     1
 0.0327065234     2     5     6     3
 0.0087631387     2     6     1     1
 -0.0058115732     2     6     1     3
 0.0110886872     2     6     1     5
 0.0156152624     2     6     3     1
 -0.0043052261     2     6     3     3
 0.0176837699     2     6     3     5
 0.0075050357     2     6     4     2
 0.0367155440     2     6     4     4
 -0.0448999112     2     6     5     1
 0.0503902933     2     6     5     3
 0.0069915844     2     6     5     5
 -0.1858406197     2     6     6     2
 -0.0204783365     2     6     6     4
 -0.1745895748     3     1     1     3
 0.0324541107     3     1     1     5
 0.0492171717     3     1     2     2
 -0.0122082576     3     1     2     4
 0.0156152624     3     1     2     6
 0.0322337318     3     1     4     2
 0.0104213535     3     1     4     4
 -0.0153853256     3     1     4     6
 -0.0320712505     3     1     5     3
 0.0010230669     3     1     5     5
 -0.0058115732     3     1     6     2
 -0.0365250981     3     1     6     4
 0.0218326417     3     1     6     6
 -0.0444419894     3     2     1     4
 0.0214268356     3     2     1     6
 -0.0492171717     3     2     2     1
 -0.1421728418     3     2     2     3
 0.0077982556     3     2     2     5
 -0.0322337318     3     2     4     1
 -0.0570910785     3     2     4     3
 -0.0299766005     3     2     4     5
 -0.0565108485     3     2     5     4
 -0.0327065234     3     2     5     6
 0.0058115732     3     2     6     1
 0.0043052261     3     2     6     3
 -0.0503902933     3     2     6     5
 0.1745895748     3     3     1     1
 0.0320712505     3     3     1     5
 0.1421728418     3     3     2     2
 0.0570910785     3     3     2     4
 -0.0043052261     3     3     2     6
 0.0570910785     3     3     4     2
 0.1777599785     3     3     4     4
 -0.0160859797     3     3     4     6
 0.0320712505     3     3     5     1
 0.1717891258     3     3     5     5
 -0.0043052261     3     3     6     2
 -0.0160859797     3     3     6     4
 0.1856815383     3     3     6     6
 0.0444419894     3     4     1     2
 0.0211397725     3     4     1     6
 0.0122082576     3     4     2     1
 -0.0570910785     3     4     2     3
 0.0265342480     3     4     2     5
 -0.0104213535     3     4     4     1
 -0.1777599785     3     4     4     3
 0.0608318588     3     4     4     5
 0.0565108485     3     4     5     2
 0.0501936153     3     4     5     6
 0.0365250981     3     4     6     1
 0.0160859797     3     4     6     3
 0.0085307188     3     4     6     5
 -0.0324541107     3     5     1     1
 -0.0320712505     3     5     1     3
 -0.0077982556     3     5     2     2
 -0.0265342480     3     5     2     4
 0.0176837699     3     5     2     6
 0.0299766005     3     5     4     2
 -0.0608318588     3     5     4     4
 0.0416628965     3     5     4     6
 -0.0010230669     3     5     5     1
 -0.1717891258     3     5     5     3
 0.0503902933     3     5     6     2
 -0.0085307188     3     5     6     4
 -0.0114818167     3     5     6     6
 -0.0214268356     3     6     1     2
 -0.0211397725     3     6     1     4
 -0.0156152624     3     6     2     1
 0.0043052261     3     6     2     3
 -0.0176837699     3     6     2     5
 0.0153853256     3     6     4     1
 0.0160859797     3     6     4     3
 -0.0416628965     3     6     4     5
 0.0327065234     3     6     5     2
 -0.0501936153     3     6     5     4
 -0.0218326417     3     6     6     1
 -0.1856815383     3     6     6     3
 0.0114818167     3     6     6     5
 -0.0163225882     4     1     1     2
 -0.1911999243     4     1     1     4
 0.0386550106     4     1     1     6
 -0.0444419894     4     1     2     3
 -0.0359908382     4     1     2     5
 -0.0322337318     4     1     3     2
 -0.0104213535     4     1     3     4
 0.0153853256     4     1     3     6
 0.0147443678     4     1     5     2
 0.0014006221     4     1     5     4
 0.0093275696     4     1     5     6
 -0.0211397725     4     1     6     3
 0.0103672043     4     1     6     5
 0.0163225882     4     2     1     1
 -0.0122082576     4     2     1     3
 -0.0507352060     4     2     1     5
 -0.1731431472     4     2     2     4
 0.0075050357     4     2     2     6
 0.0322337318     4     2     3     1
 0.0570910785     4     2     3     3
 0.0299766005     4     2     3     5
 -0.0147443678     4     2     5     1
 -0.0265342480     4     2     5     3
 0.0042118747     4     2     5     5
 -0.0367155440     4     2     6     4
 0.0204783365     4     2     6     6
 0.0122082576     4     3     1     2
 -0.0104213535     4     3     1     4
 0.0365250981     4     3     1     6
 0.0444419894     4     3     2     1
 0.0565108485     4     3     2     5
 -0.0570910785     4     3     3     2
 -0.1777599785     4     3     3     4
 0.0160859797     4     3     3     6
 0.0265342480     4     3     5     2
 0.0608318588     4     3     5     4
 0.0085307188     4     3     5     6
 0.0211397725     4     3     6     1
 0.0501936153     4     3     6     5
 0.1911999243     4     4     1     1
 0.0104213535     4     4     1     3
 -0.0014006221     4     4     1     5
 0.1731431472     4     4     2     2
 0.0367155440     4     4     2     6
 0.0104213535     4     4     3     1
 0.1777599785     4     4     3     3
 -0.0608318588     4     4     3     5
 -0.0014006221     4     4     5     1
 -0.0608318588     4     4     5     3
 0.1419903109     4     4     5     5
 0.0367155440     4     4     6     2
 0.1704737911     4     4     6     6
 0.0507352060     4     5     1     2
 0.0014006221     4     5     1     4
 -0.0010396347     4     5     1     6
 0.0359908382     4     5     2     1
 -0.0565108485     4     5     2     3
 -0.0299766005     4     5     3     2
 0.0608318588     4     5     3     4
 -0.0416628965     4     5     3     6
 -0.0042118747     4     5     5     2
 -0.1419903109     4     5     5     4
 0.0586984713     4     5     5     6
 -0.0103672043     4     5     6     1
 -0.0501936153     4     5     6     3
 -0.0386550106     4     6     1     1
 -0.0365250981     4     6     1     3
 0.0010396347     4     6     1     5
 -0.0075050357     4     6     2     2
 -0.0367155440     4     6     2     4
 -0.0153853256     4     6     3     1
 -0.0160859797     4     6     3     3
 0.0416628965     4     6     3     5
 -0.0093275696     4     6     5     1
 -0.0085307188     4     6     5     3
 -0.0586984713     4     6     5     5
 -0.0204783365     4     6     6     2
 -0.1704737911     4     6     6     4
 0.0324541107     5     1     1     3
 -0.1872689547     5     1     1     5
 -0.0010842285     5     1     2     2
 -0.0507352060     5     1     2     4
 -0.0448999112     5     1     2     6
 0.0320712505     5     1     3     3
 -0.0010230669     5     1     3     5
 -0.0147443678     5     1     4     2
 -0.0014006221     5     1     4     4
 -0.0093275696     5     1     4     6
 0.0110886872     5     1     6     2
 0.0010396347     5     1     6     4
 0.0052480590     5     1     6     6
 -0.0359908382     5     2     1     4
 -0.0559885984     5     2     1     6
 0.0010842285     5     2     2     1
 0.0077982556     5     2     2     3
 -0.1822915648     5     2     2     5
 0.0565108485     5     2     3     4
 0.0327065234     5     2     3     6
 0.0147443678     5     2     4     1
 0.0265342480     5     2     4     3
 -0.0042118747     5     2     4     5
 -0.0110886872     5     2     6     1
 -0.0176837699     5     2     6     3
 -0.0069915844     5     2     6     5
 -0.0324541107     5     3     1     1
 -0.0010230669     5     3     1     5
 -0.0077982556     5     3     2     2
 0.0299766005     5     3     2     4
 0.0503902933     5     3     2     6
 -0.0320712505     5     3     3     1
 -0.1717891258     5     3     3     5
 -0.0265342480     5     3     4     2
 -0.0608318588     5     3     4     4
 -0.0085307188     5     3     4     6
 0.0176837699     5     3     6     2
 0.0416628965     5     3     6     4
 -0.0114818167     5     3     6     6
 0.0359908382     5     4     1     2
 -0.0103672043     5     4     1     6
 0.0507352060     5     4     2     1
 -0.0299766005     5     4     2     3
 -0.0042118747     5     4     2     5
 -0.0565108485     5     4     3     2
 -0.0501936153     5     4     3     6
 0.0014006221     5     4     4     1
 0.0608318588     5     4     4     3
 -0.1419903109     5     4     4     5
 -0.0010396347     5     4     6     1
 -0.0416628965     5     4     6     3
 0.0586984713     5     4     6     5
 0.1872689547     5     5     1     1
 0.0010230669     5     5     1     3
 0.1822915648     5     5     2     2
 0.0042118747     5     5     2     4
 0.0069915844     5     5     2     6
 0.0010230669     5     5     3     1
 0.1717891258     5     5     3     3
 0.0042118747     5     5     4     2
 0.1419903109     5     5     4     4
 -0.0586984713     5     5     4     6
 0.0069915844     5     5     6     2
 -0.0586984713     5     5     6     4
 0.1437924963     5     5     6     6
 0.0559885984     5     6     1     2
 0.0103672043     5     6     1     4
 0.0448999112     5     6     2     1
 -0.0503902933     5     6     2     3
 -0.0069915844     5     6     2     5
 -0.0327065234     5     6     3     2
 0.0501936153     5     6     3     4
 0.0093275696     5     6     4     1
 0.0085307188     5     6     4     3
 0.0586984713     5     6     4     5
 -0.0052480590     5     6     6     1
 0.0114818167     5     6     6     3
 -0.1437924963     5     6     6     5
 -0.0087631387     6     1     1     2
 0.0386550106     6     1     1     4
 -0.2148117473     6     1     1     6
 0.0214268356     6     1     2     3
 -0.0559885984     6     1     2     5
 0.0058115732     6     1     3     2
 0.0365250981     6     1     3     4
 -0.0218326417     6     1     3     6
 0.0211397725     6     1     4     3
 -0.0103672043     6     1     4     5
 -0.0110886872     6     1     5     2
 -0.0010396347     6     1     5     4
 -0.0052480590     6     1     5     6
 0.0087631387     6     2     1     1
 0.0156152624     6     2     1     3
 -0.0448999112     6     2     1     5
 0.0075050357     6     2     2     4
 -0.1858406197     6     2     2     6
 -0.0058115732     6     2     3     1
 -0.0043052261     6     2     3     3
 0.0503902933     6     2     3     5
 0.0367155440     6     2     4     4
 -0.0204783365     6     2     4     6
 0.0110886872     6     2     5     1
 0.0176837699     6     2     5     3
 0.0069915844     6     2     5     5
 -0.0156152624     6     3     1     2
 0.0153853256     6     3     1     4
 -0.0218326417     6     3     1     6
 -0.0214268356     6     3     2     1
 0.0327065234     6     3     2     5
 0.0043052261     6     3     3     2
 0.0160859797     6     3     3     4
 -0.1856815383     6     3     3     6
 -0.0211397725     6     3     4     1
 -0.0501936153     6     3     4     5
 -0.0176837699     6     3     5     2
 -0.0416628965     6     3     5     4
 0.0114818167     6     3     5     6
 -0.0386550106     6     4     1     1
 -0.0153853256     6     4     1     3
 -0.0093275696     6     4     1     5
 -0.0075050357     6     4     2     2
 -0.0204783365     6     4     2     6
 -0.0365250981     6     4     3     1
 -0.0160859797     6     4     3     3
 -0.0085307188     6     4     3     5
 -0.0367155440     6     4     4     2
 -0.1704737911     6     4     4     6
 0.0010396347     6     4     5     1
 0.0416628965     6     4     5     3
 -0.0586984713     6     4     5     5
 0.0448999112     6     5     1     2
 0.0093275696     6     5     1     4
 -0.0052480590     6     5     1     6
 0.0559885984     6     5     2     1
 -0.0327065234     6     5     2     3
 -0.0503902933     6     5     3     2
 0.0085307188     6     5     3     4
 0.0114818167     6     5     3     6
 0.0103672043     6     5     4     1
 0.0501936153     6     5     4     3
 -0.0069915844     6     5     5     2
 0.0586984713     6     5     5     4
 -0.1437924963     6     5     5     6
 0.2148117473     6     6     1     1
 0.0218326417     6     6     1     3
 0.0052480590     6     6     1     5
 0.1858406197     6     6     2     2
 0.0204783365     6     6     2     4
 0.0218326417     6     6     3     1
 0.1856815383     6     6     3     3
 -0.0114818167     6     6     3     5
 0.0204783365     6     6     4     2
 0.1704737911     6     6     4     4
 0.0052480590     6     6     5     1
 -0.0114818167     6     6     5     3
 0.1437924963     6     6     5     5
0.0 0 0 0 0
 0.1367514870     1     1     2     2
 0.0163225882     1     1     2     4
 0.0087631387     1     1     2     6
 0.1745895748     1     1     3     3
 -0.0324541107     1     1     3     5
 0.0163225882     1     1     4     2
 0.1911999243     1     1     4     4
 -0.0386550106     1     1     4     6
 -0.0324541107     1     1     5     3
 0.1872689547     1     1     5     5
 0.0087631387     1     1     6     2
 -0.0386550106     1     1     6     4
 0.2148117473     1     1     6     6
 -0.1367514870     1     2     2     1
 -0.0492171717     1     2     2     3
 0.0010842285     1     2     2     5
 0.0444419894     1     2     3     4
 -0.0214268356     1     2     3     6
 -0.0163225882     1     2     4     1
 0.0122082576     1     2     4     3
 0.0507352060     1     2     4     5
 0.0359908382     1     2     5     4
 0.0559885984     1     2     5     6
 -0.0087631387     1     2     6     1
 -0.0156152624     1     2     6     3
 0.0448999112     1     2     6     5
 0.0492171717     1     3     2     2
 0.0322337318     1     3     2     4
 -0.0058115732     1     3     2     6
 -0.1745895748     1     3     3     1
 -0.0320712505     1     3     3     5
 -0.0122082576     1     3     4     2
 0.0104213535     1     3     4     4
 -0.0365250981     1     3     4     6
 0.0324541107     1     3     5     1
 0.0010230669     1     3     5     5
 0.0156152624     1     3     6     2
 -0.0153853256     1     3     6     4
 0.0218326417     1     3     6     6
 -0.0163225882     1     4     2     1
 -0.0322337318     1     4     2     3
 0.0147443678     1     4     2     5
 -0.0444419894     1     4     3     2
 -0.0211397725     1     4     3     6
 -0.1911999243     1     4     4     1
 -0.0104213535     1     4     4     3
 0.0014006221     1     4     4     5
 -0.0359908382     1     4     5     2
 0.0103672043     1     4     5     6
 0.0386550106     1     4     6     1
 0.0153853256     1     4     6     3
 0.0093275696     1     4     6     5
 -0.0010842285     1     5     2     2
 -0.0147443678     1     5     2     4
 0.0110886872     1     5     2     6
 0.0324541107     1     5     3     1
 0.0320712505     1     5     3     3
 -0.0507352060     1     5     4     2
 -0.0014006221     1     5     4     4
 0.0010396347     1     5     4     6
 -0.1872689547     1     5     5     1
 -0.0010230669     1     5     5     3
 -0.0448999112     1     5     6     2
 -0.0093275696     1     5     6     4
 0.0052480590     1     5     6     6
 -0.0087631387     1     6     2     1
 0.0058115732     1     6     2     3
 -0.0110886872     1     6     2     5
 0.0214268356     1     6     3     2
 0.0211397725     1     6     3     4
 0.0386550106     1     6     4     1
 0.0365250981     1     6     4     3
 -0.0010396347     1     6     4     5
 -0.0559885984     1     6     5     2
 -0.0103672043     1     6     5     4
 -0.2148117473     1     6     6     1
 -0.0218326417     1     6     6     3
 -0.0052480590     1     6     6     5
 -0.1367514870     2     1     1     2
 -0.0163225882     2     1     1     4
 -0.0087631387     2     1     1     6
 -0.0492171717     2     1     3     2
 0.0122082576     2     1     3     4
 -0.0156152624     2     1     3     6
 0.0444419894     2     1     4     3
 0.0359908382     2     1     4     5
 0.0010842285     2     1     5     2
 0.0507352060     2     1     5     4
 0.0448999112     2     1     5     6
 -0.0214268356     2     1     6     3
 0.0559885984     2     1     6     5
 0.1367514870     2     2     1     1
 0.0492171717     2     2     1     3
 -0.0010842285     2     2     1     5
 0.0492171717     2     2     3     1
 0.1421728418     2     2     3     3
 -0.0077982556     2     2     3     5
 0.1731431472     2     2     4     4
 -0.0075050357     2     2     4     6
 -0.0010842285     2     2     5     1
 -0.0077982556     2     2     5     3
 0.1822915648     2     2     5     5
 -0.0075050357     2     2     6     4
 0.1858406197     2     2     6     6
 -0.0492171717     2     3     1     2
 -0.0322337318     2     3     1     4
 0.0058115732     2     3     1     6
 -0.1421728418     2     3     3     2
 -0.0570910785     2     3     3     4
 0.0043052261     2     3     3     6
 -0.0444419894     2     3     4     1
 -0.0565108485     2     3     4     5
 0.0077982556     2     3     5     2
 -0.0299766005     2     3     5     4
 -0.0503902933     2     3     5     6
 0.0214268356     2     3     6     1
 -0.0327065234     2     3     6     5
 0.0163225882     2     4     1     1
 0.0322337318     2     4     1     3
 -0.0147443678     2     4     1     5
 -0.0122082576     2     4     3     1
 0.0570910785     2     4     3     3
 -0.0265342480     2     4     3     5
 -0.1731431472     2     4     4     2
 -0.0367155440     2     4     4     6
 -0.0507352060     2     4     5     1
 0.0299766005     2     4     5     3
 0.0042118747     2     4     5     5
 0.0075050357     2     4     6     2
 0.0204783365     2     4     6     6
 0.0010842285     2     5     1     2
 0.0147443678     2     5     1     4
 -0.0110886872     2     5     1     6
 0.0077982556     2     5     3     2
 0.0265342480     2     5     3     4
 -0.0176837699     2     5     3     6
 -0.0359908382     2     5     4     1
 0.0565108485     2     5     4     3
 -0.1822915648     2     5     5     2
 -0.0042118747     2     5     5     4
 -0.0069915844     2     5     5     6
 -0.0559885984     2     5     6     1
 0.0327065234     2     5     6     3
 0.0087631387     2     6     1     1
 -0.0058115732     2     6     1     3
 0.0110886872     2     6     1     5
 0.0156152624     2     6     3     1
 -0.0043052261     2     6     3     3
 0.0176837699     2     6     3     5
 0.0075050357     2     6     4     2
 0.0367155440     2     6     4     4
 -0.0448999112     2     6     5     1
 0.0503902933     2     6     5     3
 0.0069915844     2     6     5     5
 -0.1858406197     2     6     6     2
 -0.0204783365     2     6     6     4
 -0.1745895748     3     1     1     3
 0.0324541107     3     1     1     5
 0.0492171717     3     1     2     2
 -0.0122082576     3     1     2     4
 0.0156152624     3     1     2     6
 0.0322337318     3     1     4     2
 0.0104213535     3     1     4     4
 -0.0153853256     3     1     4     6
 -0.0320712505     3     1     5     3
 0.0010230669     3     1     5     5
 -0.0058115732     3     1     6     2
 -0.0365250981     3     1     6     4
 0.0218326417     3     1     6     6
 -0.0444419894     3     2     1     4
 0.0214268356     3     2     1     6
 -0.0492171717     3     2     2     1
 -0.1421728418     3     2     2     3
 0.0077982556     3     2     2     5
 -0.0322337318     3     2     4     1
 -0.0570910785     3     2     4     3
 -0.0299766005     3     2     4     5
 -0.0565108485     3     2     5     4
 -0.0327065234     3     2     5     6
 0.0058115732     3     2     6     1
 0.0043052261     3     2     6     3
 -0.0503902933     3     2     6     5
 0.1745895748     3     3     1     1
 0.0320712505     3     3     1     5
 0.1421728418     3     3     2     2
 0.0570910785     3     3     2     4
 -0.0043052261     3     3     2     6
 0.0570910785     3     3     4     2
 0.1777599785     3     3     4     4
 -0.0160859797     3     3     4     6
 0.0320712505     3     3     5     1
 0.1717891258     3     3     5     5
 -0.0043052261     3     3     6     2
 -0.0160859797     3     3     6     4
 0.1856815383     3     3     6     6
 0.0444419894     3     4     1     2
 0.0211397725     3     4     1     6
 0.0122082576     3     4     2     1
 -0.0570910785     3     4     2     3
 0.0265342480     3     4     2     5
 -0.0104213535     3     4     4     1
 -0.1777599785     3     4     4     3
 0.0608318588     3     4     4     5
 0.0565108485     3     4     5     2
 0.0501936153     3     4     5     6
 0.0365250981     3     4     6     1
 0.0160859797     3     4     6     3
 0.0085307188     3     4     6     5
 -0.0324541107     3     5     1     1
 -0.0320712505     3     5     1     3
 -0.0077982556     3     5     2     2
 -0.0265342480     3     5     2     4
 0.0176837699     3     5     2     6
 0.0299766005     3     5     4     2
 -0.0608318588     3     5     4     4
 0.0416628965     3     5     4     6
 -0.0010230669     3     5     5     1
 -0.1717891258     3     5     5     3
 0.0503902933     3     5     6     2
 -0.0085307188     3     5     6     4
 -0.0114818167     3     5     6     6
 -0.0214268356     3     6     1     2
 -0.0211397725     3     6     1     4
 -0.0156152624     3     6     2     1
 0.0043052261     3     6     2     3
 -0.0176837699     3     6     2     5
 0.0153853256     3     6     4     1
 0.0160859797     3     6     4     3
 -0.0416628965     3     6     4     5
 0.0327065234     3     6     5     2
 -0.0501936153     3     6     5     4
 -0.0218326417     3     6     6     1
 -0.1856815383     3     6     6     3
 0.0114818167     3     6     6     5
 -0.0163225882     4     1     1     2
 -0.1911999243     4     1     1     4
 0.0386550106     4     1     1     6
 -0.0444419894     4     1     2     3
 -0.0359908382     4     1     2     5
 -0.0322337318     4     1     3     2
 -0.0104213535     4     1     3     4
 0.0153853256     4     1     3     6
 0.0147443678     4     1     5     2
 0.0014006221     4     1     5     4
 0.0093275696     4     1     5     6
 -0.0211397725     4     1     6     3
 0.0103672043     4     1     6     5
 0.0163225882     4     2     1     1
 -0.0122082576     4     2     1     3
 -0.0507352060     4     2     1     5
 -0.1731431472     4     2     2     4
 0.0075050357     4     2     2     6
 0.0322337318     4     2     3     1
 0.0570910785     4     2     3     3
 0.0299766005     4     2     3     5
 -0.0147443678     4     2     5     1
 -0.0265342480     4     2     5     3
 0.0042118747     4     2     5     5
 -0.0367155440     4     2     6     4
 0.0204783365     4     2     6     6
 0.0122082576     4     3     1     2
 -0.0104213535     4     3     1     4
 0.0365250981     4     3     1     6
 0.0444419894     4     3     2     1
 0.0565108485     4     3     2     5
 -0.0570910785     4     3     3     2
 -0.1777599785     4     3     3     4
 0.0160859797     4     3     3     6
 0.0265342480     4     3     5     2
 0.0608318588     4     3     5     4
 0.0085307188     4     3     5     6
 0.0211397725     4     3     6     1
 0.0501936153     4     3     6     5
 0.1911999243     4     4     1     1
 0.0104213535     4     4     1     3
 -0.0014006221     4     4     1     5
 0.1731431472     4     4     2     2
 0.0367155440     4     4     2     6
 0.0104213535     4     4     3     1
 0.1777599785     4     4     3     3
 -0.0608318588     4     4     3     5
 -0.0014006221     4     4     5     1
 -0.0608318588     4     4     5     3
 0.1419903109     4     4     5     5
 0.0367155440     4     4     6     2
 0.1704737911     4     4     6     6
 0.0507352060     4     5     1     2
 0.0014006221     4     5     1     4
 -0.0010396347     4     5     1     6
 0.0359908382     4     5     2     1
 -0.0565108485     4     5     2     3
 -0.0299766005     4     5     3     2
 0.0608318588     4     5     3     4
 -0.0416628965     4     5     3     6
 -0.0042118747     4     5     5     2
 -0.1419903109     4     5     5     4
 0.0586984713     4     5     5     6
 -0.0103672043     4     5     6     1
 -0.0501936153     4     5     6     3
 -0.0386550106     4     6     1     1
 -0.0365250981     4     6     1     3
 0.0010396347     4     6     1     5
 -0.0075050357     4     6     2     2
 -0.0367155440     4     6     2     4
 -0.0153853256     4     6     3     1
 -0.0160859797     4     6     3     3
 0.0416628965     4     6     3     5
 -0.0093275696     4     6     5     1
 -0.0085307188     4     6     5     3