&FCI NORB= 11,NELEC= 10,MS2=0,
 ORBSYM=1,1,1,1,1,1,1,1,1,1,1
 ISYM=1,
&END
 0.9833006916     1     1     2     2
 -0.0000000004     1     1     2     3
 0.0690372463     1     1     2     4
 0.1475612643     1     1     2     6
 -0.0000000104     1     1     2     7
 -0.0000000966     1     1     2     8
 0.0865210432     1     1     2     9
 0.0881962421     1     1     2    10
 -0.0000000004     1     1     3     2
 0.8558284429     1     1     3     3
 -0.0000000135     1     1     3     4
 -0.0000000181     1     1     3     6
 -0.1695092456     1     1     3     7
 0.0983047845     1     1     3     8
 0.0000000553     1     1     3     9
 0.0000000300     1     1     3    10
 0.0690372463     1     1     4     2
 -0.0000000135     1     1     4     3
 0.9468932004     1     1     4     4
 -0.0805583209     1     1     4     6
 -0.0000000100     1     1     4     7
 0.0000000069     1     1     4     8
 0.0956337288     1     1     4     9
 -0.2511977721     1     1     4    10
 0.9962530361     1     1     5     5
 -0.3391833544     1     1     5    11
 0.1475612643     1     1     6     2
 -0.0000000181     1     1     6     3
 -0.0805583209     1     1     6     4
 0.3187030752     1     1     6     6
 0.0000000037     1     1     6     7
 -0.0000000763     1     1     6     8
 0.0409802300     1     1     6     9
 0.1072436249     1     1     6    10
 -0.0000000104     1     1     7     2
 -0.1695092456     1     1     7     3
 -0.0000000100     1     1     7     4
 0.0000000037     1     1     7     6
 0.2853072160     1     1     7     7
 -0.0692671126     1     1     7     8
 -0.0000000474     1     1     7     9
 -0.0000000160     1     1     7    10
 -0.0000000966     1     1     8     2
 0.0983047845     1     1     8     3
 0.0000000069     1     1     8     4
 -0.0000000763     1     1     8     6
 -0.0692671126     1     1     8     7
 0.3904572310     1     1     8     8
 0.0000000109     1     1     8     9
 -0.0000000288     1     1     8    10
 0.0865210432     1     1     9     2
 0.0000000553     1     1     9     3
 0.0956337288     1     1     9     4
 0.0409802300     1     1     9     6
 -0.0000000474     1     1     9     7
 0.0000000109     1     1     9     8
 0.3708958911     1     1     9     9
 0.0019314086     1     1     9    10
 0.0881962421     1     1    10     2
 0.0000000300     1     1    10     3
 -0.2511977721     1     1    10     4
 0.1072436249     1     1    10     6
 -0.0000000160     1     1    10     7
 -0.0000000288     1     1    10     8
 0.0019314086     1     1    10     9
 0.4685190479     1     1    10    10
 -0.3391833544     1     1    11     5
 0.5416431602     1     1    11    11
 -0.9833006916     1     2     2     1
 -0.0000000011     1     2     2     3
 0.0061200850     1     2     2     4
 -0.0017581092     1     2     2     6
 0.0000000004     1     2     2     7
 0.0000000005     1     2     2     8
 0.0007724666     1     2     2     9
 -0.0043651369     1     2     2    10
 0.0000000004     1     2     3     1
 -0.0301356123     1     2     3     3
 0.0000000010     1     2     3     4
 0.0000000011     1     2     3     6
 0.0119239742     1     2     3     7
 -0.0098296008     1     2     3     8
 -0.0000000062     1     2     3     9
 -0.0000000031     1     2     3    10
 -0.0690372463     1     2     4     1
 0.0000000008     1     2     4     3
 -0.0359329796     1     2     4     4
 0.0070399075     1     2     4     6
 0.0000000006     1     2     4     7
 -0.0000000025     1     2     4     8
 -0.0052594586     1     2     4     9
 0.0202352782     1     2     4    10
 -0.0411515247     1     2     5     5
 0.0266741467     1     2     5    11
 -0.1475612643     1     2     6     1
 0.0000000008     1     2     6     3
 0.0074776803     1     2     6     4
 -0.0013689598     1     2     6     6
 -0.0000000005     1     2     6     7
 0.0000000009     1     2     6     8
 0.0008993832     1     2     6     9
 -0.0040704689     1     2     6    10
 0.0000000104     1     2     7     1
 0.0099126074     1     2     7     3
 0.0000000004     1     2     7     4
 -0.0000000006     1     2     7     6
 -0.0037266447     1     2     7     7
 0.0030245560     1     2     7     8
 0.0000000019     1     2     7     9
 0.0000000006     1     2     7    10
 0.0000000966     1     2     8     1
 -0.0074027304     1     2     8     3
 -0.0000000030     1     2     8     4
 0.0000000010     1     2     8     6
 0.0026872131     1     2     8     7
 -0.0023021687     1     2     8     8
 -0.0000000020     1     2     8     9
 0.0000000011     1     2     8    10
 -0.0865210432     1     2     9     1
 -0.0000000047     1     2     9     3
 -0.0036957050     1     2     9     4
 0.0004816405     1     2     9     6
 0.0000000017     1     2     9     7
 -0.0000000018     1     2     9     8
 -0.0005151012     1     2     9     9
 0.0022026627     1     2     9    10
 -0.0881962421     1     2    10     1
 -0.0000000025     1     2    10     3
 0.0178495014     1     2    10     4
 -0.0032418348     1     2    10     6
 0.0000000005     1     2    10     7
 0.0000000005     1     2    10     8
 0.0028533205     1     2    10     9
 -0.0101667692     1     2    10    10
 0.0218897021     1     2    11     5
 -0.0142544098     1     2    11    11
 0.0000000004     1     3     2     1
 0.0000000011     1     3     2     2
 0.0000000002     1     3     2     4
 0.0000000003     1     3     2     6
 0.0020113668     1     3     2     7
 -0.0024268704     1     3     2     8
 -0.0000000015     1     3     2     9
 -0.0000000006     1     3     2    10
 -0.8558284429     1     3     3     1
 0.0301356123     1     3     3     2
 0.0093796988     1     3     3     4
 0.0042212530     1     3     3     6
 -0.0000000006     1     3     3     7
 -0.0000000010     1     3     3     8
 0.0017166249     1     3     3     9
 -0.0018905814     1     3     3    10
 0.0000000135     1     3     4     1
 -0.0000000008     1     3     4     2
 0.0000000010     1     3     4     4
 -0.0000000006     1     3     4     6
 -0.0011545690     1     3     4     7
 0.0042753172     1     3     4     8
 0.0000000032     1     3     4     9
 0.0000000003     1     3     4    10
 0.0000000015     1     3     5     5
 -0.0000000013     1     3     5    11
 0.0000000181     1     3     6     1
 -0.0000000008     1     3     6     2
 -0.0000000005     1     3     6     4
 -0.0000000003     1     3     6     6
 -0.0018086679     1     3     6     7
 -0.0003580120     1     3     6     8
 -0.0000000006     1     3     6     9
 0.1695092456     1     3     7     1
 -0.0099126074     1     3     7     2
 -0.0030900648     1     3     7     4
 -0.0038753257     1     3     7     6
 0.0000000004     1     3     7     7
 0.0000000019     1     3     7     8
 -0.0019843538     1     3     7     9
 -0.0012705085     1     3     7    10
 -0.0983047845     1     3     8     1
 0.0074027304     1     3     8     2
 0.0020824357     1     3     8     4
 0.0021435451     1     3     8     6
 0.0000000012     1     3     8     7
 -0.0000000033     1     3     8     8
 0.0008322323     1     3     8     9
 0.0043309027     1     3     8    10
 -0.0000000553     1     3     9     1
 0.0000000047     1     3     9     2
 0.0000000013     1     3     9     4
 0.0000000011     1     3     9     6
 -0.0015123919     1     3     9     7
 0.0009051701     1     3     9     8
 0.0000000008     1     3     9     9
 0.0000000035     1     3     9    10
 -0.0000000300     1     3    10     1
 0.0000000025     1     3    10     2
 0.0000000001     1     3    10     4
 0.0000000008     1     3    10     6
 -0.0009572195     1     3    10     7
 0.0018134082     1     3    10     8
 0.0000000016     1     3    10     9
 0.0000000023     1     3    10    10
 -0.0000000007     1     3    11     5
 -0.0690372463     1     4     2     1
 -0.0061200850     1     4     2     2
 -0.0000000002     1     4     2     3
 -0.0004377728     1     4     2     6
 0.0000000002     1     4     2     7
 0.0000000005     1     4     2     8
 -0.0015637536     1     4     2     9
 0.0023857768     1     4     2    10
 0.0000000135     1     4     3     1
 -0.0000000010     1     4     3     2
 -0.0093796988     1     4     3     3
 -0.0000000001     1     4     3     6
 0.0019354958     1     4     3     7
 0.0021928815     1     4     3     8
 0.0000000019     1     4     3     9
 0.0000000002     1     4     3    10
 -0.9468932004     1     4     4     1
 0.0359329796     1     4     4     2
 -0.0000000010     1     4     4     3
 0.0087182701     1     4     4     6
 -0.0000000003     1     4     4     7
 -0.0000000066     1     4     4     8
 0.0050332849     1     4     4     9
 0.0091942074     1     4     4    10
 -0.0126812720     1     4     5     5
 0.0076770289     1     4     5    11
 0.0805583209     1     4     6     1
 -0.0074776803     1     4     6     2
 0.0000000005     1     4     6     3
 -0.0033043761     1     4     6     6
 -0.0000000002     1     4     6     7
 0.0000000015     1     4     6     8
 -0.0002812494     1     4     6     9
 -0.0037119254     1     4     6    10
 0.0000000100     1     4     7     1
 -0.0000000004     1     4     7     2
 0.0030900648     1     4     7     3
 -0.0000000003     1     4     7     6
 -0.0020819182     1     4     7     7
 0.0010483797     1     4     7     8
 0.0000000005     1     4     7     9
 0.0000000002     1     4     7    10
 -0.0000000069     1     4     8     1
 0.0000000030     1     4     8     2
 -0.0020824357     1     4     8     3
 0.0000000009     1     4     8     6
 0.0023647183     1     4     8     7
 -0.0014786621     1     4     8     8
 0.0000000011     1     4     8     9
 0.0000000020     1     4     8    10
 -0.0956337288     1     4     9     1
 0.0036957050     1     4     9     2
 -0.0000000013     1     4     9     3
 0.0020021063     1     4     9     6
 0.0000000015     1     4     9     7
 -0.0000000004     1     4     9     8
 -0.0005380016     1     4     9     9
 -0.0005388978     1     4     9    10
 0.2511977721     1     4    10     1
 -0.0178495014     1     4    10     2
 -0.0000000001     1     4    10     3
 -0.0068719497     1     4    10     6
 0.0000000009     1     4    10     7
 0.0000000052     1     4    10     8
 -0.0047615206     1     4    10     9
 -0.0050823644     1     4    10    10
 0.0068639657     1     4    11     5
 -0.0045704688     1     4    11    11
 0.0047844446     1     5     2    11
 -0.0000000006     1     5     3    11
 0.0008130632     1     5     4    11
 -0.9962530361     1     5     5     1
 0.0411515247     1     5     5     2
 -0.0000000015     1     5     5     3
 0.0126812720     1     5     5     4
 0.0085165277     1     5     5     6
 -0.0000000003     1     5     5     7
 -0.0000000096     1     5     5     8
 0.0102253429     1     5     5     9
 0.0042301890     1     5     5    10
 -0.0018759747     1     5     6    11
 0.0000000001     1     5     7    11
 -0.0000000020     1     5     8    11
 0.0021922588     1     5     9    11
 0.0005674180     1     5    10    11
 0.3391833544     1     5    11     1
 -0.0218897021     1     5    11     2
 0.0000000007     1     5    11     3
 -0.0068639657     1     5    11     4
 -0.0075867651     1     5    11     6
 0.0000000002     1     5    11     7
 0.0000000045     1     5    11     8
 -0.0044048851     1     5    11     9
 -0.0025450067     1     5    11    10
 -0.1475612643     1     6     2     1
 0.0017581092     1     6     2     2
 -0.0000000003     1     6     2     3
 0.0004377728     1     6     2     4
 0.0000000001     1     6     2     7
 -0.0000000001     1     6     2     8
 0.0004177427     1     6     2     9
 -0.0008286341     1     6     2    10
 0.0000000181     1     6     3     1
 -0.0000000011     1     6     3     2
 -0.0042212530     1     6     3     3
 0.0000000001     1     6     3     4
 0.0020666578     1     6     3     7
 -0.0025015571     1     6     3     8
 -0.0000000017     1     6     3     9
 -0.0000000008     1     6     3    10
 0.0805583209     1     6     4     1
 -0.0070399075     1     6     4     2
 0.0000000006     1     6     4     3
 -0.0087182701     1     6     4     4
 0.0000000001     1     6     4     7
 0.0000000006     1     6     4     8
 -0.0022833557     1     6     4     9
 0.0031600243     1     6     4    10
 -0.0085165277     1     6     5     5
 0.0057107904     1     6     5    11
 -0.3187030752     1     6     6     1
 0.0013689598     1     6     6     2
 0.0000000003     1     6     6     3
 0.0033043761     1     6     6     4
 -0.0000000001     1     6     6     7
 0.0000000001     1     6     6     8
 0.0004792283     1     6     6     9
 -0.0011131754     1     6     6    10
 -0.0000000037     1     6     7     1
 0.0000000006     1     6     7     2
 0.0038753257     1     6     7     3
 0.0000000003     1     6     7     4
 -0.0012896786     1     6     7     7
 0.0011361223     1     6     7     8
 0.0000000009     1     6     7     9
 0.0000000002     1     6     7    10
 0.0000000763     1     6     8     1
 -0.0000000010     1     6     8     2
 -0.0021435451     1     6     8     3
 -0.0000000009     1     6     8     4
 0.0004745840     1     6     8     7
 -0.0004510941     1     6     8     8
 -0.0000000009     1     6     8     9
 -0.0000000004     1     6     8    10
 -0.0409802300     1     6     9     1
 -0.0004816405     1     6     9     2
 -0.0000000011     1     6     9     3
 -0.0020021063     1     6     9     4
 0.0000000003     1     6     9     7
 -0.0000000006     1     6     9     8
 -0.0001134938     1     6     9     9
 0.0013166973     1     6     9    10
 -0.1072436249     1     6    10     1
 0.0032418348     1     6    10     2
 -0.0000000008     1     6    10     3
 0.0068719497     1     6    10     4
 -0.0000000008     1     6    10     8
 0.0019640712     1     6    10     9
 -0.0029448208     1     6    10    10
 0.0075867651     1     6    11     5
 -0.0048614064     1     6    11    11
 0.0000000104     1     7     2     1
 -0.0000000004     1     7     2     2
 -0.0020113668     1     7     2     3
 -0.0000000002     1     7     2     4
 -0.0000000001     1     7     2     6
 0.0003373429     1     7     2     8
 0.0000000002     1     7     2     9
 0.0000000001     1     7     2    10
 0.1695092456     1     7     3     1
 -0.0119239742     1     7     3     2
 0.0000000006     1     7     3     3
 -0.0019354958     1     7     3     4
 -0.0020666578     1     7     3     6
 0.0000000007     1     7     3     8
 -0.0004719619     1     7     3     9
 -0.0003132890     1     7     3    10
 0.0000000100     1     7     4     1
 -0.0000000006     1     7     4     2
 0.0011545690     1     7     4     3
 0.0000000003     1     7     4     4
 -0.0000000001     1     7     4     6
 -0.0013163386     1     7     4     8
 -0.0000000010     1     7     4     9
 -0.0000000007     1     7     4    10
 0.0000000003     1     7     5     5
 -0.0000000001     1     7     5    11
 -0.0000000037     1     7     6     1
 0.0000000005     1     7     6     2
 0.0018086679     1     7     6     3
 0.0000000002     1     7     6     4
 0.0000000001     1     7     6     6
 0.0006615383     1     7     6     8
 0.0000000006     1     7     6     9
 0.0000000002     1     7     6    10
 -0.2853072160     1     7     7     1
 0.0037266447     1     7     7     2
 -0.0000000004     1     7     7     3
 0.0020819182     1     7     7     4
 0.0012896786     1     7     7     6
 -0.0000000008     1     7     7     8
 0.0008819167     1     7     7     9
 -0.0000140597     1     7     7    10
 0.0692671126     1     7     8     1
 -0.0026872131     1     7     8     2
 -0.0000000012     1     7     8     3
 -0.0023647183     1     7     8     4
 -0.0004745840     1     7     8     6
 0.0000000008     1     7     8     8
 -0.0005139330     1     7     8     9
 -0.0007446649     1     7     8    10
 0.0000000474     1     7     9     1
 -0.0000000017     1     7     9     2
 0.0015123919     1     7     9     3
 -0.0000000015     1     7     9     4
 -0.0000000003     1     7     9     6
 0.0001000333     1     7     9     8
 -0.0000000002     1     7     9     9
 -0.0000000006     1     7     9    10
 0.0000000160     1     7    10     1
 -0.0000000005     1     7    10     2
 0.0009572195     1     7    10     3
 -0.0000000009     1     7    10     4
 -0.0004151767     1     7    10     8
 -0.0000000005     1     7    10     9
 -0.0000000002     1     7    10    10
 -0.0000000002     1     7    11     5
 0.0000000003     1     7    11    11
 0.0000000966     1     8     2     1
 -0.0000000005     1     8     2     2
 0.0024268704     1     8     2     3
 -0.0000000005     1     8     2     4
 0.0000000001     1     8     2     6
 -0.0003373429     1     8     2     7
 -0.0000000002     1     8     2     9
 0.0000000006     1     8     2    10
 -0.0983047845     1     8     3     1
 0.0098296008     1     8     3     2
 0.0000000010     1     8     3     3
 -0.0021928815     1     8     3     4
 0.0025015571     1     8     3     6
 -0.0000000007     1     8     3     7
 -0.0000729378     1     8     3     9
 0.0025174945     1     8     3    10
 -0.0000000069     1     8     4     1
 0.0000000025     1     8     4     2
 -0.0042753172     1     8     4     3
 0.0000000066     1     8     4     4
 -0.0000000006     1     8     4     6
 0.0013163386     1     8     4     7
 0.0000000015     1     8     4     9
 -0.0000000032     1     8     4    10
 0.0000000096     1     8     5     5
 -0.0000000065     1     8     5    11
 0.0000000763     1     8     6     1
 -0.0000000009     1     8     6     2
 0.0003580120     1     8     6     3
 -0.0000000015     1     8     6     4
 -0.0000000001     1     8     6     6
 -0.0006615383     1     8     6     7
 -0.0000000003     1     8     6     9
 0.0000000004     1     8     6    10
 0.0692671126     1     8     7     1
 -0.0030245560     1     8     7     2
 -0.0000000019     1     8     7     3
 -0.0010483797     1     8     7     4
 -0.0011361223     1     8     7     6
 0.0000000008     1     8     7     7
 -0.0006139663     1     8     7     9
 -0.0003294882     1     8     7    10
 -0.3904572310     1     8     8     1
 0.0023021687     1     8     8     2
 0.0000000033     1     8     8     3
 0.0014786621     1     8     8     4
 0.0004510941     1     8     8     6
 -0.0000000008     1     8     8     7
 0.0003573467     1     8     8     9
 0.0008146549     1     8     8    10
 -0.0000000109     1     8     9     1
 0.0000000018     1     8     9     2
 -0.0009051701     1     8     9     3
 0.0000000004     1     8     9     4
 0.0000000006     1     8     9     6
 -0.0001000333     1     8     9     7
 0.0000000009     1     8     9    10
 0.0000000288     1     8    10     1
 -0.0000000005     1     8    10     2
 -0.0018134082     1     8    10     3
 -0.0000000052     1     8    10     4
 0.0000000008     1     8    10     6
 0.0004151767     1     8    10     7
 -0.0000000010     1     8    10     9
 0.0000000031     1     8    10    10
 -0.0000000045     1     8    11     5
 0.0000000027     1     8    11    11
 -0.0865210432     1     9     2     1
 -0.0007724666     1     9     2     2
 0.0000000015     1     9     2     3
 0.0015637536     1     9     2     4
 -0.0004177427     1     9     2     6
 -0.0000000002     1     9     2     7
 0.0000000002     1     9     2     8
 -0.0006506578     1     9     2    10
 -0.0000000553     1     9     3     1
 0.0000000062     1     9     3     2
 -0.0017166249     1     9     3     3
 -0.0000000019     1     9     3     4
 0.0000000017     1     9     3     6
 0.0004719619     1     9     3     7
 0.0000729378     1     9     3     8
 0.0000000019     1     9     3    10
 -0.0956337288     1     9     4     1
 0.0052594586     1     9     4     2
 -0.0000000032     1     9     4     3
 -0.0050332849     1     9     4     4
 0.0022833557     1     9     4     6
 0.0000000010     1     9     4     7
 -0.0000000015     1     9     4     8
 0.0042226228     1     9     4    10
 -0.0102253429     1     9     5     5
 0.0065971439     1     9     5    11
 -0.0409802300     1     9     6     1
 -0.0008993832     1     9     6     2
 0.0000000006     1     9     6     3
 0.0002812494     1     9     6     4
 -0.0004792283     1     9     6     6
 -0.0000000006     1     9     6     7
 0.0000000003     1     9     6     8
 -0.0006473739     1     9     6    10
 0.0000000474     1     9     7     1
 -0.0000000019     1     9     7     2
 0.0019843538     1     9     7     3
 -0.0000000005     1     9     7     4
 -0.0000000009     1     9     7     6
 -0.0008819167     1     9     7     7
 0.0006139663     1     9     7     8
 -0.0000000001     1     9     7    10
 -0.0000000109     1     9     8     1
 0.0000000020     1     9     8     2
 -0.0008322323     1     9     8     3
 -0.0000000011     1     9     8     4
 0.0000000009     1     9     8     6
 0.0005139330     1     9     8     7
 -0.0003573467     1     9     8     8
 0.0000000019     1     9     8    10
 -0.3708958911     1     9     9     1
 0.0005151012     1     9     9     2
 -0.0000000008     1     9     9     3
 0.0005380016     1     9     9     4
 0.0001134938     1     9     9     6
 0.0000000002     1     9     9     7
 -0.0003683581     1     9     9    10
 -0.0019314086     1     9    10     1
 -0.0028533205     1     9    10     2
 -0.0000000016     1     9    10     3
 0.0047615206     1     9    10     4
 -0.0019640712     1     9    10     6
 0.0000000005     1     9    10     7
 0.0000000010     1     9    10     8
 -0.0034954168     1     9    10    10
 0.0044048851     1     9    11     5
 -0.0028909174     1     9    11    11
 -0.0881962421     1    10     2     1
 0.0043651369     1    10     2     2
 0.0000000006     1    10     2     3
 -0.0023857768     1    10     2     4
 0.0008286341     1    10     2     6
 -0.0000000001     1    10     2     7
 -0.0000000006     1    10     2     8
 0.0006506578     1    10     2     9
 -0.0000000300     1    10     3     1
 0.0000000031     1    10     3     2
 0.0018905814     1    10     3     3
 -0.0000000002     1    10     3     4
 0.0000000008     1    10     3     6
 0.0003132890     1    10     3     7
 -0.0025174945     1    10     3     8
 -0.0000000019     1    10     3     9
 0.2511977721     1    10     4     1
 -0.0202352782     1    10     4     2
 -0.0000000003     1    10     4     3
 -0.0091942074     1    10     4     4
 -0.0031600243     1    10     4     6
 0.0000000007     1    10     4     7
 0.0000000032     1    10     4     8
 -0.0042226228     1    10     4     9
 -0.0042301890     1    10     5     5
 0.0031124247     1    10     5    11
 -0.1072436249     1    10     6     1
 0.0040704689     1    10     6     2
 0.0037119254     1    10     6     4
 0.0011131754     1    10     6     6
 -0.0000000002     1    10     6     7
 -0.0000000004     1    10     6     8
 0.0006473739     1    10     6     9
 0.0000000160     1    10     7     1
 -0.0000000006     1    10     7     2
 0.0012705085     1    10     7     3
 -0.0000000002     1    10     7     4
 -0.0000000002     1    10     7     6
 0.0000140597     1    10     7     7
 0.0003294882     1    10     7     8
 0.0000000001     1    10     7     9
 0.0000000288     1    10     8     1
 -0.0000000011     1    10     8     2
 -0.0043309027     1    10     8     3
 -0.0000000020     1    10     8     4
 0.0000000004     1    10     8     6
 0.0007446649     1    10     8     7
 -0.0008146549     1    10     8     8
 -0.0000000019     1    10     8     9
 -0.0019314086     1    10     9     1
 -0.0022026627     1    10     9     2
 -0.0000000035     1    10     9     3
 0.0005388978     1    10     9     4
 -0.0013166973     1    10     9     6
 0.0000000006     1    10     9     7
 -0.0000000009     1    10     9     8
 0.0003683581     1    10     9     9
 -0.4685190479     1    10    10     1
 0.0101667692     1    10    10     2
 -0.0000000023     1    10    10     3
 0.0050823644     1    10    10     4
 0.0029448208     1    10    10     6
 0.0000000002     1    10    10     7
 -0.0000000031     1    10    10     8
 0.0034954168     1    10    10     9
 0.0025450067     1    10    11     5
 -0.0015931009     1    10    11    11
 -0.0047844446     1    11     2     5
 0.0000000006     1    11     3     5
 -0.0008130632     1    11     4     5
 0.3391833544     1    11     5     1
 -0.0266741467     1    11     5     2
 0.0000000013     1    11     5     3
 -0.0076770289     1    11     5     4
 -0.0057107904     1    11     5     6
 0.0000000001     1    11     5     7
 0.0000000065     1    11     5     8
 -0.0065971439     1    11     5     9
 -0.0031124247     1    11     5    10
 0.0018759747     1    11     6     5
 -0.0000000001     1    11     7     5
 0.0000000020     1    11     8     5
 -0.0021922588     1    11     9     5
 -0.0005674180     1    11    10     5
 -0.5416431602     1    11    11     1
 0.0142544098     1    11    11     2
 0.0045704688     1    11    11     4
 0.0048614064     1    11    11     6
 -0.0000000003     1    11    11     7
 -0.0000000027     1    11    11     8
 0.0028909174     1    11    11     9
 0.0015931009     1    11    11    10
 -0.9833006916     2     1     1     2
 0.0000000004     2     1     1     3
 -0.0690372463     2     1     1     4
 -0.1475612643     2     1     1     6
 0.0000000104     2     1     1     7
 0.0000000966     2     1     1     8
 -0.0865210432     2     1     1     9
 -0.0881962421     2     1     1    10
 -0.0000000011     2     1     3     2
 -0.0301356123     2     1     3     3
 0.0000000008     2     1     3     4
 0.0000000008     2     1     3     6
 0.0099126074     2     1     3     7
 -0.0074027304     2     1     3     8
 -0.0000000047     2     1     3     9
 -0.0000000025     2     1     3    10
 0.0061200850     2     1     4     2
 0.0000000010     2     1     4     3
 -0.0359329796     2     1     4     4
 0.0074776803     2     1     4     6
 0.0000000004     2     1     4     7
 -0.0000000030     2     1     4     8
 -0.0036957050     2     1     4     9
 0.0178495014     2     1     4    10
 -0.0411515247     2     1     5     5
 0.0218897021     2     1     5    11
 -0.0017581092     2     1     6     2
 0.0000000011     2     1     6     3
 0.0070399075     2     1     6     4
 -0.0013689598     2     1     6     6
 -0.0000000006     2     1     6     7
 0.0000000010     2     1     6     8
 0.0004816405     2     1     6     9
 -0.0032418348     2     1     6    10
 0.0000000004     2     1     7     2
 0.0119239742     2     1     7     3
 0.0000000006     2     1     7     4
 -0.0000000005     2     1     7     6
 -0.0037266447     2     1     7     7
 0.0026872131     2     1     7     8
 0.0000000017     2     1     7     9
 0.0000000005     2     1     7    10
 0.0000000005     2     1     8     2
 -0.0098296008     2     1     8     3
 -0.0000000025     2     1     8     4
 0.0000000009     2     1     8     6
 0.0030245560     2     1     8     7
 -0.0023021687     2     1     8     8
 -0.0000000018     2     1     8     9
 0.0000000005     2     1     8    10
 0.0007724666     2     1     9     2
 -0.0000000062     2     1     9     3
 -0.0052594586     2     1     9     4
 0.0008993832     2     1     9     6
 0.0000000019     2     1     9     7
 -0.0000000020     2     1     9     8
 -0.0005151012     2     1     9     9
 0.0028533205     2     1     9    10
 -0.0043651369     2     1    10     2
 -0.0000000031     2     1    10     3
 0.0202352782     2     1    10     4
 -0.0040704689     2     1    10     6
 0.0000000006     2     1    10     7
 0.0000000011     2     1    10     8
 0.0022026627     2     1    10     9
 -0.0101667692     2     1    10    10
 0.0266741467     2     1    11     5
 -0.0142544098     2     1    11    11
 0.9833006916     2     2     1     1
 0.0000000011     2     2     1     3
 -0.0061200850     2     2     1     4
 0.0017581092     2     2     1     6
 -0.0000000004     2     2     1     7
 -0.0000000005     2     2     1     8
 -0.0007724666     2     2     1     9
 0.0043651369     2     2     1    10
 0.0000000011     2     2     3     1
 0.5228722686     2     2     3     3
 -0.0000000041     2     2     3     4
 -0.0000000074     2     2     3     6
 -0.0647523669     2     2     3     7
 0.0209946011     2     2     3     8
 0.0000000076     2     2     3     9
 0.0000000057     2     2     3    10
 -0.0061200850     2     2     4     1
 -0.0000000041     2     2     4     3
 0.5516878027     2     2     4     4
 -0.0327758620     2     2     4     6
 -0.0000000043     2     2     4     7
 0.0000000012     2     2     4     8
 0.0367838116     2     2     4     9
 -0.0916835408     2     2     4    10
 0.5784067534     2     2     5     5
 -0.1232613994     2     2     5    11
 0.0017581092     2     2     6     1
 -0.0000000074     2     2     6     3
 -0.0327758620     2     2     6     4
 0.2781590142     2     2     6     6
 -0.0000000002     2     2     6     7
 -0.0000000424     2     2     6     8
 0.0211710935     2     2     6     9
 0.0624346939     2     2     6    10
 -0.0000000004     2     2     7     1
 -0.0647523669     2     2     7     3
 -0.0000000043     2     2     7     4
 -0.0000000002     2     2     7     6
 0.2546002947     2     2     7     7
 -0.0443685022     2     2     7     8
 -0.0000000303     2     2     7     9
 -0.0000000117     2     2     7    10
 -0.0000000005     2     2     8     1
 0.0209946011     2     2     8     3
 0.0000000012     2     2     8     4
 -0.0000000424     2     2     8     6
 -0.0443685022     2     2     8     7
 0.3570842375     2     2     8     8
 0.0000000047     2     2     8     9
 -0.0000000135     2     2     8    10
 -0.0007724666     2     2     9     1
 0.0000000076     2     2     9     3
 0.0367838116     2     2     9     4