&FCI NORB= 10,NELEC= 16,MS2=0,
 ORBSYM=1,1,1,1,1,1,1,1,1,1
 ISYM=1,
&END
 0.3952112229     1     1     2     2
 -0.0000000007     1     1     2     3
 0.0050948600     1     1     2     4
 -0.0000000022     1     1     2     7
 -0.0000000004     1     1     2    10
 -0.0000000007     1     1     3     2
 0.6005051076     1     1     3     3
 -0.0000000499     1     1     3     4
 0.1102543280     1     1     3     7
 -0.0333576021     1     1     3    10
 0.0050948600     1     1     4     2
 -0.0000000499     1     1     4     3
 0.4828649783     1     1     4     4
 0.0000000445     1     1     4     7
 0.0000000136     1     1     4    10
 0.4807378542     1     1     5     5
 0.0000000493     1     1     5     6
 0.0000000272     1     1     5     8
 0.0210098727     1     1     5     9
 0.0000000493     1     1     6     5
 0.4805071430     1     1     6     6
 -0.0385464237     1     1     6     8
 -0.0000000185     1     1     6     9
 -0.0000000022     1     1     7     2
 0.1102543280     1     1     7     3
 0.0000000445     1     1     7     4
 0.5613262723     1     1     7     7
 0.0448073759     1     1     7    10
 0.0000000272     1     1     8     5
 -0.0385464237     1     1     8     6
 0.5074069945     1     1     8     8
 0.0000000348     1     1     8     9
 0.0210098727     1     1     9     5
 -0.0000000185     1     1     9     6
 0.0000000348     1     1     9     8
 0.4411152652     1     1     9     9
 -0.0000000004     1     1    10     2
 -0.0333576021     1     1    10     3
 0.0000000136     1     1    10     4
 0.0448073759     1     1    10     7
 0.2192322822     1     1    10    10
 -0.3952112229     1     2     2     1
 0.0044343874     1     2     2     3
 0.0000000008     1     2     2     4
 0.0129364823     1     2     2     7
 0.0024121990     1     2     2    10
 0.0000000007     1     2     3     1
 -0.0000000001     1     2     3     3
 0.1484601641     1     2     3     4
 0.0000000001     1     2     3    10
 -0.0050948600     1     2     4     1
 0.1485806028     1     2     4     3
 -0.1318153441     1     2     4     7
 -0.0400930321     1     2     4    10
 -0.0000000027     1     2     5     5
 -0.1463340537     1     2     5     6
 -0.0819823477     1     2     5     8
 0.0000000004     1     2     5     9
 -0.1463250030     1     2     6     5
 0.0000000026     1     2     6     6
 0.0000000008     1     2     6     8
 0.0544120463     1     2     6     9
 0.0000000022     1     2     7     1
 -0.1321571165     1     2     7     4
 -0.0817245984     1     2     8     5
 0.0000000008     1     2     8     6
 0.0000000003     1     2     8     8
 -0.1030142769     1     2     8     9
 0.0000000004     1     2     9     5
 0.0541975312     1     2     9     6
 -0.1029988391     1     2     9     8
 -0.0000000002     1     2     9     9
 0.0000000004     1     2    10     1
 0.0000000001     1     2    10     3
 -0.0401476661     1     2    10     4
 -0.0000000001     1     2    10    10
 0.0000000007     1     3     2     1
 -0.0044343874     1     3     2     2
 -0.0001211051     1     3     2     4
 -0.6005051076     1     3     3     1
 0.0000000001     1     3     3     2
 0.0000000007     1     3     3     4
 0.0095614048     1     3     3     7
 0.0026633972     1     3     3    10
 0.0000000499     1     3     4     1
 -0.1485806028     1     3     4     2
 0.0052189743     1     3     4     4
 0.0000000019     1     3     4     7
 0.0000000004     1     3     4    10
 0.0110841460     1     3     5     5
 0.0000000018     1     3     5     6
 0.0000000012     1     3     5     8
 0.0017118308     1     3     5     9
 0.0000000018     1     3     6     5
 0.0109834466     1     3     6     6
 -0.0025311981     1     3     6     8
 -0.0000000009     1     3     6     9
 -0.1102543280     1     3     7     1
 0.0000000021     1     3     7     4
 0.0177566542     1     3     7     7
 0.0047011278     1     3     7    10
 0.0000000007     1     3     8     5
 -0.0021045151     1     3     8     6
 0.0117115191     1     3     8     8
 0.0000000017     1     3     8     9
 0.0011335931     1     3     9     5
 -0.0000000004     1     3     9     6
 0.0000000015     1     3     9     8
 0.0080166518     1     3     9     9
 0.0333576021     1     3    10     1
 -0.0000000001     1     3    10     2
 0.0000000003     1     3    10     4
 0.0021730846     1     3    10     7
 0.0008519839     1     3    10    10
 -0.0050948600     1     4     2     1
 -0.0000000008     1     4     2     2
 0.0001211051     1     4     2     3
 0.0003420371     1     4     2     7
 0.0000644711     1     4     2    10
 0.0000000499     1     4     3     1
 -0.1484601641     1     4     3     2
 -0.0000000007     1     4     3     3
 -0.0000000002     1     4     3     7
 0.0000000001     1     4     3    10
 -0.4828649783     1     4     4     1
 -0.0052189743     1     4     4     3
 -0.0025501100     1     4     4     7
 0.0001470531     1     4     4    10
 -0.0000000018     1     4     5     5
 -0.0064463267     1     4     5     6
 -0.0016935570     1     4     5     8
 -0.0000000002     1     4     5     9
 -0.0064817892     1     4     6     5
 -0.0000000016     1     4     6     6
 0.0000000002     1     4     6     8
 0.0007552847     1     4     6     9
 -0.0000000445     1     4     7     1
 0.1321571165     1     4     7     2
 -0.0000000021     1     4     7     3
 -0.0000000027     1     4     7     7
 -0.0000000003     1     4     7    10
 -0.0040154474     1     4     8     5
 0.0000000002     1     4     8     6
 -0.0000000019     1     4     8     8
 -0.0059810874     1     4     8     9
 0.0023610300     1     4     9     6
 -0.0056075566     1     4     9     8
 -0.0000000013     1     4     9     9
 -0.0000000136     1     4    10     1
 0.0401476661     1     4    10     2
 -0.0000000003     1     4    10     3
 -0.0000000004     1     4    10     7
 -0.0000000001     1     4    10    10
 -0.0000076767     1     5     2     6
 -0.0002534594     1     5     2     8
 0.0000000001     1     5     2     9
 0.0000000005     1     5     3     8
 0.0003570388     1     5     3     9
 0.0000319782     1     5     4     6
 0.0023101404     1     5     4     8
 -0.0000000001     1     5     4     9
 -0.4807378542     1     5     5     1
 0.0000000027     1     5     5     2
 -0.0110841460     1     5     5     3
 0.0000000018     1     5     5     4
 0.0034682339     1     5     5     7
 0.0020453824     1     5     5    10
 -0.0000000493     1     5     6     1
 0.1463250030     1     5     6     2
 -0.0000000018     1     5     6     3
 0.0064817892     1     5     6     4
 -0.0000000005     1     5     6     7
 0.0000000001     1     5     6    10
 0.0000000004     1     5     7     8
 -0.0009869019     1     5     7     9
 -0.0000000272     1     5     8     1
 0.0817245984     1     5     8     2
 -0.0000000007     1     5     8     3
 0.0040154474     1     5     8     4
 -0.0000000001     1     5     8     7
 -0.0210098727     1     5     9     1
 -0.0000000004     1     5     9     2
 -0.0011335931     1     5     9     3
 0.0005367808     1     5     9     7
 0.0004672294     1     5     9    10
 -0.0001022382     1     5    10     9
 0.0000076767     1     6     2     5
 0.0002081757     1     6     2     9
 -0.0003581790     1     6     3     8
 -0.0000000004     1     6     3     9
 -0.0000319782     1     6     4     5
 -0.0019668066     1     6     4     9
 -0.0000000493     1     6     5     1
 0.1463340537     1     6     5     2
 -0.0000000018     1     6     5     3
 0.0064463267     1     6     5     4
 -0.0000000005     1     6     5     7
 0.0000000001     1     6     5    10
 -0.4805071430     1     6     6     1
 -0.0000000026     1     6     6     2
 -0.0109834466     1     6     6     3
 0.0000000016     1     6     6     4
 0.0035296262     1     6     6     7
 0.0020435596     1     6     6    10
 0.0012164045     1     6     7     8
 -0.0000000003     1     6     7     9
 0.0385464237     1     6     8     1
 -0.0000000008     1     6     8     2
 0.0021045151     1     6     8     3
 -0.0000000002     1     6     8     4
 -0.0008345576     1     6     8     7
 -0.0007277688     1     6     8    10
 0.0000000185     1     6     9     1
 -0.0541975312     1     6     9     2
 0.0000000004     1     6     9     3
 -0.0023610300     1     6     9     4
 0.0000000001     1     6     9     7
 0.0000100943     1     6    10     8
 0.0000000022     1     7     2     1
 -0.0129364823     1     7     2     2
 -0.0003420371     1     7     2     4
 -0.1102543280     1     7     3     1
 -0.0095614048     1     7     3     3
 0.0000000002     1     7     3     4
 0.0023152133     1     7     3    10
 -0.0000000445     1     7     4     1
 0.1318153441     1     7     4     2
 -0.0000000019     1     7     4     3
 0.0025501100     1     7     4     4
 0.0000000003     1     7     4    10
 -0.0034682339     1     7     5     5
 0.0000000005     1     7     5     6
 0.0000000006     1     7     5     8
 -0.0015608711     1     7     5     9
 0.0000000005     1     7     6     5
 -0.0035296262     1     7     6     6
 0.0019971133     1     7     6     8
 -0.0000000004     1     7     6     9
 -0.5613262723     1     7     7     1
 -0.0177566542     1     7     7     3
 0.0000000027     1     7     7     4
 0.0041787561     1     7     7    10
 0.0000000001     1     7     8     5
 0.0008345576     1     7     8     6
 -0.0030991348     1     7     8     8
 0.0000000006     1     7     8     9
 -0.0005367808     1     7     9     5
 -0.0000000001     1     7     9     6
 0.0000000004     1     7     9     8
 -0.0020726347     1     7     9     9
 -0.0448073759     1     7    10     1
 -0.0021730846     1     7    10     3
 0.0000000004     1     7    10     4
 0.0003859575     1     7    10    10
 0.0002534594     1     8     2     5
 -0.0000119589     1     8     2     9
 -0.0000000005     1     8     3     5
 0.0003581790     1     8     3     6
 0.0000000001     1     8     3     9
 -0.0023101404     1     8     4     5
 0.0001412928     1     8     4     9
 -0.0000000272     1     8     5     1
 0.0819823477     1     8     5     2
 -0.0000000012     1     8     5     3
 0.0016935570     1     8     5     4
 -0.0000000006     1     8     5     7
 0.0385464237     1     8     6     1
 -0.0000000008     1     8     6     2
 0.0025311981     1     8     6     3
 -0.0000000002     1     8     6     4
 -0.0019971133     1     8     6     7
 -0.0007274218     1     8     6    10
 -0.0000000004     1     8     7     5
 -0.0012164045     1     8     7     6
 0.0000000001     1     8     7     9
 -0.5074069945     1     8     8     1
 -0.0000000003     1     8     8     2
 -0.0117115191     1     8     8     3
 0.0000000019     1     8     8     4
 0.0030991348     1     8     8     7
 0.0028933651     1     8     8    10
 -0.0000000348     1     8     9     1
 0.1029988391     1     8     9     2
 -0.0000000015     1     8     9     3
 0.0056075566     1     8     9     4
 -0.0000000004     1     8     9     7
 0.0000000002     1     8     9    10
 -0.0000100943     1     8    10     6
 -0.0000000001     1     9     2     5
 -0.0002081757     1     9     2     6
 0.0000119589     1     9     2     8
 -0.0003570388     1     9     3     5
 0.0000000004     1     9     3     6
 -0.0000000001     1     9     3     8
 0.0000000001     1     9     4     5
 0.0019668066     1     9     4     6
 -0.0001412928     1     9     4     8
 -0.0210098727     1     9     5     1
 -0.0000000004     1     9     5     2
 -0.0017118308     1     9     5     3
 0.0000000002     1     9     5     4
 0.0015608711     1     9     5     7
 0.0005269904     1     9     5    10
 0.0000000185     1     9     6     1
 -0.0544120463     1     9     6     2
 0.0000000009     1     9     6     3
 -0.0007552847     1     9     6     4
 0.0000000004     1     9     6     7
 0.0009869019     1     9     7     5
 0.0000000003     1     9     7     6
 -0.0000000001     1     9     7     8
 -0.0000000348     1     9     8     1
 0.1030142769     1     9     8     2
 -0.0000000017     1     9     8     3
 0.0059810874     1     9     8     4
 -0.0000000006     1     9     8     7
 0.0000000002     1     9     8    10
 -0.4411152652     1     9     9     1
 0.0000000002     1     9     9     2
 -0.0080166518     1     9     9     3
 0.0000000013     1     9     9     4
 0.0020726347     1     9     9     7
 0.0017985303     1     9     9    10
 0.0001022382     1     9    10     5
 0.0000000004     1    10     2     1
 -0.0024121990     1    10     2     2
 -0.0000644711     1    10     2     4
 0.0333576021     1    10     3     1
 -0.0000000001     1    10     3     2
 -0.0026633972     1    10     3     3
 -0.0000000001     1    10     3     4
 -0.0023152133     1    10     3     7
 -0.0000000136     1    10     4     1
 0.0400930321     1    10     4     2
 -0.0000000004     1    10     4     3
 -0.0001470531     1    10     4     4
 -0.0000000003     1    10     4     7
 -0.0020453824     1    10     5     5
 -0.0000000001     1    10     5     6
 -0.0005269904     1    10     5     9
 -0.0000000001     1    10     6     5
 -0.0020435596     1    10     6     6
 0.0007274218     1    10     6     8
 -0.0448073759     1    10     7     1
 -0.0047011278     1    10     7     3
 0.0000000003     1    10     7     4
 -0.0041787561     1    10     7     7
 0.0007277688     1    10     8     6
 -0.0028933651     1    10     8     8
 -0.0000000002     1    10     8     9
 -0.0004672294     1    10     9     5
 -0.0000000002     1    10     9     8
 -0.0017985303     1    10     9     9
 -0.2192322822     1    10    10     1
 0.0000000001     1    10    10     2
 -0.0008519839     1    10    10     3
 0.0000000001     1    10    10     4
 -0.0003859575     1    10    10     7
 -0.3952112229     2     1     1     2
 0.0000000007     2     1     1     3
 -0.0050948600     2     1     1     4
 0.0000000022     2     1     1     7
 0.0000000004     2     1     1    10
 0.0044343874     2     1     3     2
 -0.0000000001     2     1     3     3
 0.1485806028     2     1     3     4
 0.0000000001     2     1     3    10
 0.0000000008     2     1     4     2
 0.1484601641     2     1     4     3
 -0.1321571165     2     1     4     7
 -0.0401476661     2     1     4    10
 -0.0000000027     2     1     5     5
 -0.1463250030     2     1     5     6
 -0.0817245984     2     1     5     8
 0.0000000004     2     1     5     9
 -0.1463340537     2     1     6     5
 0.0000000026     2     1     6     6
 0.0000000008     2     1     6     8
 0.0541975312     2     1     6     9
 0.0129364823     2     1     7     2
 -0.1318153441     2     1     7     4
 -0.0819823477     2     1     8     5
 0.0000000008     2     1     8     6
 0.0000000003     2     1     8     8
 -0.1029988391     2     1     8     9
 0.0000000004     2     1     9     5
 0.0544120463     2     1     9     6
 -0.1030142769     2     1     9     8
 -0.0000000002     2     1     9     9
 0.0024121990     2     1    10     2
 0.0000000001     2     1    10     3
 -0.0400930321     2     1    10     4
 -0.0000000001     2     1    10    10
 0.3952112229     2     2     1     1
 -0.0044343874     2     2     1     3
 -0.0000000008     2     2     1     4
 -0.0129364823     2     2     1     7
 -0.0024121990     2     2     1    10
 -0.0044343874     2     2     3     1
 0.6005358523     2     2     3     3
 0.0000000501     2     2     3     4
 0.1104682789     2     2     3     7
 -0.0333118282     2     2     3    10
 -0.0000000008     2     2     4     1
 0.0000000501     2     2     4     3
 0.4827641227     2     2     4     4
 -0.0000000444     2     2     4     7
 -0.0000000134     2     2     4    10
 0.4809075151     2     2     5     5
 -0.0000000493     2     2     5     6
 -0.0000000279     2     2     5     8
 0.0211851234     2     2     5     9
 -0.0000000493     2     2     6     5
 0.4806648252     2     2     6     6
 -0.0387954468     2     2     6     8
 0.0000000181     2     2     6     9
 -0.0129364823     2     2     7     1
 0.1104682789     2     2     7     3
 -0.0000000444     2     2     7     4
 0.5621549812     2     2     7     7
 0.0449633271     2     2     7    10
 -0.0000000279     2     2     8     5
 -0.0387954468     2     2     8     6
 0.5074158135     2     2     8     8
 -0.0000000347     2     2     8     9
 0.0211851234     2     2     9     5
 0.0000000181     2     2     9     6
 -0.0000000347     2     2     9     8
 0.4410977855     2     2     9     9
 -0.0024121990     2     2    10     1
 -0.0333118282     2     2    10     3
 -0.0000000134     2     2    10     4
 0.0449633271     2     2    10     7
 0.2192652649     2     2    10    10
 -0.0000000007     2     3     1     1
 0.0044343874     2     3     1     2
 0.0001211051     2     3     1     4
 0.0000000001     2     3     3     1
 -0.6005358523     2     3     3     2
 -0.0039872634     2     3     3     4
 0.0000000016     2     3     3     7
 0.0000000004     2     3     3    10
 -0.1484601641     2     3     4     1
 -0.0000000501     2     3     4     2
 0.0000000008     2     3     4     4
 -0.0110167326     2     3     4     7
 -0.0024149430     2     3     4    10
 0.0000000017     2     3     5     5
 -0.0107886983     2     3     5     6
 -0.0071933349     2     3     5     8
 0.0000000003     2     3     5     9
 -0.0107089992     2     3     6     5
 0.0000000020     2     3     6     6
 -0.0000000003     2     3     6     8
 0.0052697824     2     3     6     9
 -0.1104682789     2     3     7     2
 -0.0122013565     2     3     7     4
 0.0000000030     2     3     7     7
 0.0000000008     2     3     7    10
 -0.0044023496     2     3     8     5
 -0.0000000003     2     3     8     6
 0.0000000020     2     3     8     8
 -0.0101822834     2     3     8     9
 0.0000000002     2     3     9     5
 0.0025697850     2     3     9     6
 -0.0092188172     2     3     9     8
 0.0000000013     2     3     9     9
 -0.0000000001     2     3    10     1
 0.0333118282     2     3    10     2
 -0.0016248598     2     3    10     4
 0.0000000003     2     3    10     7
 0.0000000001     2     3    10    10
 0.0050948600     2     4     1     1
 0.0000000008     2     4     1     2
 -0.0001211051     2     4     1     3
 -0.0003420371     2     4     1     7
 -0.0000644711     2     4     1    10
 -0.1485806028     2     4     3     1
 -0.0000000501     2     4     3     2
 0.0039872634     2     4     3     3
 0.0011809555     2     4     3     7
 -0.0005723507     2     4     3    10
 -0.4827641227     2     4     4     2
 -0.0000000008     2     4     4     3
 -0.0000000004     2     4     4     7
 0.0099615618     2     4     5     5
 -0.0000000011     2     4     5     6
 -0.0000000003     2     4     5     8
 0.0008515606     2     4     5     9
 -0.0000000011     2     4     6     5
 0.0099823653     2     4     6     6
 -0.0012475694     2     4     6     8
 0.0000000001     2     4     6     9
 0.1318153441     2     4     7     1
 0.0000000444     2     4     7     2
 0.0122013565     2     4     7     3
 0.0161575155     2     4     7     7
 0.0014751122     2     4     7    10
 -0.0000000007     2     4     8     5
 -0.0009498878     2     4     8     6
 0.0113799022     2     4     8     8
 -0.0000000010     2     4     8     9
 0.0004943847     2     4     9     5
 0.0000000004     2     4     9     6
 -0.0000000009     2     4     9     8
 0.0078691540     2     4     9     9
 0.0400930321     2     4    10     1
 0.0000000134     2     4    10     2
 0.0016248598     2     4    10     3
 0.0024877307     2     4    10     7
 0.0005925710     2     4    10    10
 0.0000076767     2     5     1     6
 0.0002534594     2     5     1     8
 -0.0000000001     2     5     1     9
 -0.0000866577     2     5     3     6
 -0.0027370220     2     5     3     8
 0.0000000004     2     5     4     8
 0.0002933488     2     5     4     9
 0.0000000027     2     5     5     1
 -0.4809075151     2     5     5     2
 -0.0000000017     2     5     5     3
 -0.0099615618     2     5     5     4
 0.0000000007     2     5     5     7
 0.0000000003     2     5     5    10
 0.1463340537     2     5     6     1
 0.0000000493     2     5     6     2
 0.0107089992     2     5     6     3
 0.0000000011     2     5     6     4
 0.0032238607     2     5     6     7
 -0.0004876619     2     5     6    10
 0.0000149687     2     5     7     6
 -0.0018096697     2     5     7     8
 -0.0000000002     2     5     7     9
 0.0819823477     2     5     8     1
 0.0000000279     2     5     8     2
 0.0044023496     2     5     8     3
 0.0000000007     2     5     8     4
 0.0011047142     2     5     8     7
 -0.0004050389     2     5     8    10
 -0.0000000004     2     5     9     1
 -0.0211851234     2     5     9     2
 -0.0000000002     2     5     9     3
 -0.0004943847     2     5     9     4
 0.0000000001     2     5     9     7
 0.0000000001     2     5     9    10
 -0.0000025062     2     5    10     6
 -0.0002960105     2     5    10     8
 -0.0000076767     2     6     1     5
 -0.0002081757     2     6     1     9
 0.0000866577     2     6     3     5
 0.0022258048     2     6     3     9
 -0.0002807746     2     6     4     8
 -0.0000000003     2     6     4     9
 0.1463250030     2     6     5     1
 0.0000000493     2     6     5     2
 0.0107886983     2     6     5     3
 0.0000000011     2     6     5     4
 0.0031894167     2     6     5     7
 -0.0004968568     2     6     5    10
 -0.0000000026     2     6     6     1
 -0.4806648252     2     6     6     2
 -0.0000000020     2     6     6     3
 -0.0099823653     2     6     6     4
 0.0000000006     2     6     6     7
 0.0000000003     2     6     6    10
 -0.0000149687     2     6     7     5
 0.0000000002     2     6     7     8
 0.0016568042     2     6     7     9
 -0.0000000008     2     6     8     1
 0.0387954468     2     6     8     2
 0.0000000003     2     6     8     3
 0.0009498878     2     6     8     4
 -0.0000000001     2     6     8     7
 -0.0000000001     2     6     8    10
 -0.0544120463     2     6     9     1
 -0.0000000181     2     6     9     2
 -0.0025697850     2     6     9     3
 -0.0000000004     2     6     9     4
 -0.0007783601     2     6     9     7
 0.0002239107     2     6     9    10
 0.0000025062     2     6    10     5
 0.0003572916     2     6    10     9
 -0.0000000022     2     7     1     1
 0.0129364823     2     7     1     2
 0.0003420371     2     7     1     4
 -0.1104682789     2     7     3     2
 -0.0000000016     2     7     3     3
 -0.0011809555     2     7     3     4
 0.0000000004     2     7     3    10
 0.1321571165     2     7     4     1
 0.0000000444     2     7     4     2
 0.0110167326     2     7     4     3
 0.0000000004     2     7     4     4
 -0.0013109972     2     7     4    10
 -0.0000000007     2     7     5     5
 -0.0031894167     2     7     5     6
 -0.0029346539     2     7     5     8
 -0.0000000003     2     7     5     9
 -0.0032238607     2     7     6     5
 -0.0000000006     2     7     6     6
 0.0000000004     2     7     6     8
 0.0027012287     2     7     6     9
 -0.5621549812     2     7     7     2
 -0.0000000030     2     7     7     3
 -0.0161575155     2     7     7     4
 0.0000000007     2     7     7    10
 -0.0011047142     2     7     8     5
 0.0000000001     2     7     8     6
 -0.0000000005     2     7     8     8
 -0.0031286607     2     7     8     9
 -0.0000000001     2     7     9     5
 0.0007783601     2     7     9     6
 -0.0025827353     2     7     9     8
 -0.0000000004     2     7     9     9
 -0.0449633271     2     7    10     2
 -0.0000000003     2     7    10     3
 -0.0024877307     2     7    10     4
 -0.0002534594     2     8     1     5
 0.0000119589     2     8     1     9
 0.0027370220     2     8     3     5
 -0.0002846120     2     8     3     9
 -0.0000000004     2     8     4     5
 0.0002807746     2     8     4     6
 0.0817245984     2     8     5     1
 0.0000000279     2     8     5     2
 0.0071933349     2     8     5     3
 0.0000000003     2     8     5     4
 0.0029346539     2     8     5     7
 -0.0000553569     2     8     5    10
 -0.0000000008     2     8     6     1
 0.0387954468     2     8     6     2
 0.0000000003     2     8     6     3
 0.0012475694     2     8     6     4
 -0.0000000004     2     8     6     7
 -0.0000000001     2     8     6    10
 0.0018096697     2     8     7     5
 -0.0000000002     2     8     7     6
 -0.0002572355     2     8     7     9
 -0.0000000003     2     8     8     1
 -0.5074158135     2     8     8     2
 -0.0000000020     2     8     8     3
 -0.0113799022     2     8     8     4
 0.0000000005     2     8     8     7
 0.0000000005     2     8     8    10
 0.1030142769     2     8     9     1
 0.0000000347     2     8     9     2
 0.0092188172     2     8     9     3
 0.0000000009     2     8     9     4
 0.0025827353     2     8     9     7
 -0.0010370481     2     8     9    10
 0.0002960105     2     8    10     5
 0.0000225927     2     8    10     9
 0.0000000001     2     9     1     5
 0.0002081757     2     9     1     6
 -0.0000119589     2     9     1     8
 -0.0022258048     2     9     3     6
 0.0002846120     2     9     3     8
 -0.0002933488     2     9     4     5
 0.0000000003     2     9     4     6
 -0.0000000004     2     9     5     1
 -0.0211851234     2     9     5     2
 -0.0000000003     2     9     5     3
 -0.0008515606     2     9     5     4
 0.0000000003     2     9     5     7
 0.0000000001     2     9     5    10
 -0.0541975312     2     9     6     1
 -0.0000000181     2     9     6     2
 -0.0052697824     2     9     6     3
 -0.0000000001     2     9     6     4
 -0.0027012287     2     9     6     7
 -0.0001649354     2     9     6    10
 0.0000000002     2     9     7     5
 -0.0016568042     2     9     7     6
 0.0002572355     2     9     7     8
 0.1029988391     2     9     8     1
 0.0000000347     2     9     8     2
 0.0101822834     2     9     8     3
 0.0000000010     2     9     8     4
 0.0031286607     2     9     8     7
 -0.0011984873     2     9     8    10
 0.0000000002     2     9     9     1
 -0.4410977855     2     9     9     2
 -0.0000000013     2     9     9     3
 -0.0078691540     2     9     9     4
 0.0000000004     2     9     9     7
 0.0000000003     2     9     9    10
 -0.0003572916     2     9    10     6
 -0.0000225927     2     9    10     8
 -0.0000000004     2    10     1     1
 0.0024121990     2    10     1     2
 0.0000644711     2    10     1     4
 -0.0000000001     2    10     3     1
 0.0333118282     2    10     3     2
 -0.0000000004     2    10     3     3
 0.0005723507     2    10     3     4
 -0.0000000004     2    10     3     7
 0.0401476661     2    10     4     1
 0.0000000134     2    10     4     2
 0.0024149430     2    10     4     3
 0.0013109972     2    10     4     7
 -0.0000000003     2    10     5     5
 0.0004968568     2    10     5     6
 0.0000553569     2    10     5     8
 -0.0000000001     2    10     5     9
 0.0004876619     2    10     6     5
 -0.0000000003     2    10     6     6
 0.0000000001     2    10     6     8
 0.0001649354     2    10     6     9
 -0.0449633271     2    10     7     2
 -0.0000000008     2    10     7     3
 -0.0014751122     2    10     7     4
 -0.0000000007     2    10     7     7
 0.0004050389     2    10     8     5
 0.0000000001     2    10     8     6
 -0.0000000005     2    10     8     8
 0.0011984873     2    10     8     9
 -0.0000000001     2    10     9     5
 -0.0002239107     2    10     9     6
 0.0010370481     2    10     9     8
 -0.0000000003     2    10     9     9
 0.0000000001     2    10    10     1
 -0.2192652649     2    10    10     2
 -0.0000000001     2    10    10     3
 -0.0005925710     2    10    10     4
 0.0000000007     3     1     1     2
 -0.6005051076     3     1     1     3
 0.0000000499     3     1     1     4
 -0.1102543280     3     1     1     7
 0.0333576021     3     1     1    10
 -0.0044343874     3     1     2     2
 0.0000000001     3     1     2     3
 -0.1485806028     3     1     2     4
 -0.0000000001     3     1     2    10
 -0.0001211051     3     1     4     2
 0.0000000007     3     1     4     3
 0.0052189743     3     1     4     4
 0.0000000021     3     1     4     7
 0.0000000003     3     1     4    10
 0.0110841460     3     1     5     5
 0.0000000018     3     1     5     6
 0.0000000007     3     1     5     8
 0.0011335931     3     1     5     9
 0.0000000018     3     1     6     5
 0.0109834466     3     1     6     6
 -0.0021045151     3     1     6     8
 -0.0000000004     3     1     6     9
 0.0095614048     3     1     7     3
 0.0000000019     3     1     7     4
 0.0177566542     3     1     7     7
 0.0021730846     3     1     7    10
 0.0000000012     3     1     8     5
 -0.0025311981     3     1     8     6
 0.0117115191     3     1     8     8
 0.0000000015     3     1     8     9
 0.0017118308     3     1     9     5
 -0.0000000009     3     1     9     6
 0.0000000017     3     1     9     8
 0.0080166518     3     1     9     9
 0.0026633972     3     1    10     3
 0.0000000004     3     1    10     4
 0.0047011278     3     1    10     7
 0.0008519839     3     1    10    10
 -0.0000000007     3     2     1     1
 0.0000000001     3     2     1     3
 -0.1484601641     3     2     1     4
 -0.0000000001     3     2     1    10
 0.0044343874     3     2     2     1
 -0.6005358523     3     2     2     3
 -0.0000000501     3     2     2     4
 -0.1104682789     3     2     2     7
 0.0333118282     3     2     2    10
 0.0001211051     3     2     4     1
 -0.0039872634     3     2     4     3
 0.0000000008     3     2     4     4
 -0.0122013565     3     2     4     7
 -0.0016248598     3     2     4    10
 0.0000000017     3     2     5     5