&FCI NORB= 15,NELEC= 10,MS2=0,
 ORBSYM=1,1,1,1,1,1,1,1,1,1,1,1,1,1,1
 ISYM=1,
&END
 0.9850285216     1     1     2     2
 -0.0671013400     1     1     2     4
 0.1060583984     1     1     2     6
 0.0534323981     1     1     2     8
 0.1100868626     1     1     2    11
 0.0536799429     1     1     2    13
 0.8719931952     1     1     3     3
 0.1169379664     1     1     3     7
 -0.0457630667     1     1     3     9
 0.2228040600     1     1     3    12
 -0.0671013400     1     1     4     2
 0.9521893232     1     1     4     4
 0.0596721073     1     1     4     6
 -0.1223465212     1     1     4     8
 0.1599130886     1     1     4    11
 0.0577898124     1     1     4    13
 0.9986147811     1     1     5     5
 -0.2219889571     1     1     5    10
 -0.0550398985     1     1     5    15
 0.1060583984     1     1     6     2
 0.0596721073     1     1     6     4
 0.2794164718     1     1     6     6
 0.0146713693     1     1     6     8
 0.1063400352     1     1     6    11
 0.0476744767     1     1     6    13
 0.1169379664     1     1     7     3
 0.2408323502     1     1     7     7
 -0.0303519333     1     1     7     9
 0.1281021604     1     1     7    12
 0.0534323981     1     1     8     2
 -0.1223465212     1     1     8     4
 0.0146713693     1     1     8     6
 0.3084776292     1     1     8     8
 -0.0208806734     1     1     8    11
 -0.0203612082     1     1     8    13
 -0.0457630667     1     1     9     3
 -0.0303519333     1     1     9     7
 0.3135934668     1     1     9     9
 -0.0676032925     1     1     9    12
 -0.2219889571     1     1    10     5
 0.3949408640     1     1    10    10
 0.0394747702     1     1    10    15
 0.1100868626     1     1    11     2
 0.1599130886     1     1    11     4
 0.1063400352     1     1    11     6
 -0.0208806734     1     1    11     8
 0.4224244971     1     1    11    11
 0.0396035264     1     1    11    13
 0.2228040600     1     1    12     3
 0.1281021604     1     1    12     7
 -0.0676032925     1     1    12     9
 0.4505001019     1     1    12    12
 0.0536799429     1     1    13     2
 0.0577898124     1     1    13     4
 0.0476744767     1     1    13     6
 -0.0203612082     1     1    13     8
 0.0396035264     1     1    13    11
 0.3355142701     1     1    13    13
 0.3243180709     1     1    14    14
 -0.0550398985     1     1    15     5
 0.0394747702     1     1    15    10
 0.3313846107     1     1    15    15
 -0.9850285216     1     2     2     1
 -0.0069747086     1     2     2     4
 -0.0010221593     1     2     2     6
 0.0020750707     1     2     2     8
 -0.0033755567     1     2     2    11
 -0.0014341620     1     2     2    13
 -0.0310047076     1     2     3     3
 -0.0084716005     1     2     3     7
 0.0052296873     1     2     3     9
 -0.0199055613     1     2     3    12
 0.0671013400     1     2     4     1
 -0.0359243769     1     2     4     4
 -0.0054640244     1     2     4     6
 0.0077613089     1     2     4     8
 -0.0144358685     1     2     4    11
 -0.0061180789     1     2     4    13
 -0.0408080404     1     2     5     5
 0.0169328873     1     2     5    10
 0.0053226726     1     2     5    15
 -0.1060583984     1     2     6     1
 -0.0052681188     1     2     6     4
 -0.0010131081     1     2     6     6
 0.0011868067     1     2     6     8
 -0.0027640813     1     2     6    11
 -0.0011232865     1     2     6    13
 -0.0063323345     1     2     7     3
 -0.0021566185     1     2     7     7
 0.0012287742     1     2     7     9
 -0.0052611079     1     2     7    12
 -0.0534323981     1     2     8     1
 0.0056700172     1     2     8     4
 0.0007875935     1     2     8     6
 -0.0020862505     1     2     8     8
 0.0030516813     1     2     8    11
 0.0009544330     1     2     8    13
 0.0035360486     1     2     9     3
 0.0010751141     1     2     9     7
 -0.0008490360     1     2     9     9
 0.0025012717     1     2     9    12
 0.0130411109     1     2    10     5
 -0.0073322976     1     2    10    10
 -0.0019550814     1     2    10    15
 -0.1100868626     1     2    11     1
 -0.0120287746     1     2    11     4
 -0.0023078771     1     2    11     6
 0.0035515897     1     2    11     8
 -0.0062367539     1     2    11    11
 -0.0024481078     1     2    11    13
 -0.0137382585     1     2    12     3
 -0.0048588873     1     2    12     7
 0.0026253900     1     2    12     9
 -0.0111570542     1     2    12    12
 -0.0536799429     1     2    13     1
 -0.0046989860     1     2    13     4
 -0.0008413930     1     2    13     6
 0.0010475130     1     2    13     8
 -0.0022148878     1     2    13    11
 -0.0006964235     1     2    13    13
 0.0002521810     1     2    14    14
 0.0035265122     1     2    15     5
 -0.0016348636     1     2    15    10
 -0.0003666473     1     2    15    15
 -0.0015811065     1     3     2     7
 0.0014015708     1     3     2     9
 -0.0049782149     1     3     2    12
 -0.8719931952     1     3     3     1
 0.0310047076     1     3     3     2
 -0.0105458523     1     3     3     4
 0.0035526576     1     3     3     6
 0.0036276185     1     3     3     8
 0.0001961688     1     3     3    11
 0.0033195881     1     3     3    13
 -0.0007183549     1     3     4     7
 0.0028937754     1     3     4     9
 -0.0021792590     1     3     4    12
 0.0026889719     1     3     5    14
 0.0015124193     1     3     6     7
 0.0003261273     1     3     6     9
 0.0013026504     1     3     6    12
 -0.1169379664     1     3     7     1
 0.0063323345     1     3     7     2
 -0.0022328549     1     3     7     4
 0.0026966016     1     3     7     6
 0.0014582221     1     3     7     8
 0.0016433298     1     3     7    11
 0.0004069388     1     3     7    13
 0.0007678029     1     3     8     7
 0.0007781813     1     3     8     9
 0.0021562822     1     3     8    12
 0.0457630667     1     3     9     1
 -0.0035360486     1     3     9     2
 0.0011332231     1     3     9     4
 -0.0008772439     1     3     9     6
 0.0009870924     1     3     9     8
 -0.0025878560     1     3     9    11
 -0.0013953262     1     3     9    13
 0.0007864279     1     3    10    14
 0.0010796096     1     3    11     7
 -0.0009746427     1     3    11     9
 0.0027917360     1     3    11    12
 -0.2228040600     1     3    12     1
 0.0137382585     1     3    12     2
 -0.0047272635     1     3    12     4
 0.0042980467     1     3    12     6
 0.0035559158     1     3    12     8
 0.0046616633     1     3    12    11
 0.0020461397     1     3    12    13
 -0.0007431852     1     3    13     7
 -0.0002416331     1     3    13     9
 -0.0008278515     1     3    13    12
 -0.0002340108     1     3    14     5
 0.0021264895     1     3    14    10
 0.0022142330     1     3    14    15
 0.0018335397     1     3    15    14
 0.0671013400     1     4     2     1
 0.0069747086     1     4     2     2
 0.0002554088     1     4     2     6
 0.0015690842     1     4     2     8
 -0.0013821279     1     4     2    11
 -0.0010129334     1     4     2    13
 0.0105458523     1     4     3     3
 0.0016505363     1     4     3     7
 0.0017322447     1     4     3     9
 0.0028526076     1     4     3    12
 -0.9521893232     1     4     4     1
 0.0359243769     1     4     4     2
 0.0069442043     1     4     4     6
 0.0023545633     1     4     4     8
 0.0095673468     1     4     4    11
 0.0014404951     1     4     4    13
 0.0136498658     1     4     5     5
 -0.0055551004     1     4     5    10
 0.0011953819     1     4     5    15
 -0.0596721073     1     4     6     1
 0.0052681188     1     4     6     2
 0.0026410689     1     4     6     6
 -0.0007006490     1     4     6     8
 0.0031714324     1     4     6    11
 0.0012297683     1     4     6    13
 0.0022328549     1     4     7     3
 0.0014747931     1     4     7     7
 -0.0007950554     1     4     7     9
 0.0017715036     1     4     7    12
 0.1223465212     1     4     8     1
 -0.0056700172     1     4     8     2
 -0.0025659037     1     4     8     6
 -0.0018585409     1     4     8     8
 -0.0009318092     1     4     8    11
 -0.0018253805     1     4     8    13
 -0.0011332231     1     4     9     3
 -0.0015221187     1     4     9     7
 -0.0001224108     1     4     9     9
 -0.0035470812     1     4     9    12
 -0.0046030288     1     4    10     5
 0.0022845650     1     4    10    10
 0.0014984980     1     4    10    15
 -0.1599130886     1     4    11     1
 0.0120287746     1     4    11     2
 0.0045234484     1     4    11     6
 0.0021032480     1     4    11     8
 0.0062535398     1     4    11    11
 0.0025604009     1     4    11    13
 0.0047272635     1     4    12     3
 0.0019311791     1     4    12     7
 -0.0019641069     1     4    12     9
 0.0048441999     1     4    12    12
 -0.0577898124     1     4    13     1
 0.0046989860     1     4    13     2
 0.0022354671     1     4    13     6
 -0.0011663929     1     4    13     8
 0.0036924239     1     4    13    11
 0.0029845852     1     4    13    13
 0.0018845171     1     4    14    14
 -0.0014274064     1     4    15     5
 0.0028118626     1     4    15    10
 0.0018490912     1     4    15    15
 0.0027429739     1     5     2    10
 0.0014838552     1     5     2    15
 0.0030008523     1     5     3    14
 -0.0006633515     1     5     4    10
 0.0027278318     1     5     4    15
 -0.9986147811     1     5     5     1
 0.0408080404     1     5     5     2
 -0.0136498658     1     5     5     4
 0.0064586517     1     5     5     6
 0.0072861761     1     5     5     8
 0.0077339109     1     5     5    11
 0.0035380144     1     5     5    13
 -0.0021136363     1     5     6    10
 -0.0001372700     1     5     6    15
 -0.0005125680     1     5     7    14
 0.0001893292     1     5     8    10
 0.0002219925     1     5     8    15
 -0.0000691418     1     5     9    14
 0.2219889571     1     5    10     1
 -0.0130411109     1     5    10     2
 0.0046030288     1     5    10     4
 -0.0048724749     1     5    10     6
 -0.0028475116     1     5    10     8
 -0.0025696129     1     5    10    11
 -0.0015415448     1     5    10    13
 0.0008502059     1     5    11    10
 -0.0006909585     1     5    11    15
 -0.0003082863     1     5    12    14
 -0.0000004261     1     5    13    10
 0.0001513588     1     5    13    15
 0.0002340108     1     5    14     3
 -0.0012894266     1     5    14     7
 0.0003582034     1     5    14     9
 -0.0020875033     1     5    14    12
 0.0550398985     1     5    15     1
 -0.0035265122     1     5    15     2
 0.0014274064     1     5    15     4
 -0.0014802366     1     5    15     6
 -0.0000150783     1     5    15     8
 -0.0029959165     1     5    15    11
 -0.0008157263     1     5    15    13
 -0.1060583984     1     6     2     1
 0.0010221593     1     6     2     2
 -0.0002554088     1     6     2     4
 0.0004002071     1     6     2     8
 -0.0004735840     1     6     2    11
 -0.0002917947     1     6     2    13
 -0.0035526576     1     6     3     3
 -0.0011643959     1     6     3     7
 0.0012073011     1     6     3     9
 -0.0029918633     1     6     3    12
 -0.0596721073     1     6     4     1
 0.0054640244     1     6     4     2
 -0.0069442043     1     6     4     4
 0.0018605181     1     6     4     8
 -0.0013756141     1     6     4    11
 -0.0010136631     1     6     4    13
 -0.0064586517     1     6     5     5
 0.0027202437     1     6     5    10
 0.0013326421     1     6     5    15
 -0.2794164718     1     6     6     1
 0.0010131081     1     6     6     2
 -0.0026410689     1     6     6     4
 0.0004736126     1     6     6     8
 -0.0006391483     1     6     6    11
 -0.0002579433     1     6     6    13
 -0.0026966016     1     6     7     3
 -0.0006594003     1     6     7     7
 0.0003751573     1     6     7     9
 -0.0018255495     1     6     7    12
 -0.0146713693     1     6     8     1
 -0.0007875935     1     6     8     2
 0.0025659037     1     6     8     4
 -0.0009761766     1     6     8     8
 0.0010580403     1     6     8    11
 0.0001337001     1     6     8    13
 0.0008772439     1     6     9     3
 0.0000526387     1     6     9     7
 -0.0001995709     1     6     9     9
 0.0001116667     1     6     9    12
 0.0048724749     1     6    10     5
 -0.0022836829     1     6    10    10
 -0.0004935429     1     6    10    15
 -0.1063400352     1     6    11     1
 0.0023078771     1     6    11     2
 -0.0045234484     1     6    11     4
 0.0014825077     1     6    11     8
 -0.0009675462     1     6    11    11
 -0.0003740344     1     6    11    13
 -0.0042980467     1     6    12     3
 -0.0012347619     1     6    12     7
 0.0005299853     1     6    12     9
 -0.0027770360     1     6    12    12
 -0.0476744767     1     6    13     1
 0.0008413930     1     6    13     2
 -0.0022354671     1     6    13     4
 0.0003016190     1     6    13     8
 -0.0003624515     1     6    13    11
 0.0001631306     1     6    13    13
 0.0003737286     1     6    14    14
 0.0014802366     1     6    15     5
 -0.0002958339     1     6    15    10
 0.0001294113     1     6    15    15
 0.0015811065     1     7     2     3
 0.0001511936     1     7     2     9
 -0.0003799398     1     7     2    12
 -0.1169379664     1     7     3     1
 0.0084716005     1     7     3     2
 -0.0016505363     1     7     3     4
 0.0011643959     1     7     3     6
 0.0006928038     1     7     3     8
 0.0005220603     1     7     3    11
 0.0011339211     1     7     3    13
 0.0007183549     1     7     4     3
 0.0007309218     1     7     4     9
 -0.0001717151     1     7     4    12
 0.0007821991     1     7     5    14
 -0.0015124193     1     7     6     3
 0.0003220979     1     7     6     9
 -0.0005887801     1     7     6    12
 -0.2408323502     1     7     7     1
 0.0021566185     1     7     7     2
 -0.0014747931     1     7     7     4
 0.0006594003     1     7     7     6
 0.0006012392     1     7     7     8
 0.0001852577     1     7     7    11
 0.0000080705     1     7     7    13
 -0.0007678029     1     7     8     3
 0.0003392428     1     7     8     9
 0.0001086290     1     7     8    12
 0.0303519333     1     7     9     1
 -0.0010751141     1     7     9     2
 0.0015221187     1     7     9     4
 -0.0000526387     1     7     9     6
 0.0000072044     1     7     9     8
 -0.0002233008     1     7     9    11
 -0.0001979794     1     7     9    13
 0.0002214348     1     7    10    14
 -0.0010796096     1     7    11     3
 -0.0001081583     1     7    11     9
 0.0000906348     1     7    11    12
 -0.1281021604     1     7    12     1
 0.0048588873     1     7    12     2
 -0.0019311791     1     7    12     4
 0.0012347619     1     7    12     6
 0.0011446413     1     7    12     8
 0.0012465058     1     7    12    11
 0.0005596694     1     7    12    13
 0.0007431852     1     7    13     3
 -0.0001817350     1     7    13     9
 0.0002390818     1     7    13    12
 0.0012894266     1     7    14     5
 -0.0000042903     1     7    14    10
 0.0004488228     1     7    14    15
 0.0005095368     1     7    15    14
 -0.0534323981     1     8     2     1
 -0.0020750707     1     8     2     2
 -0.0015690842     1     8     2     4
 -0.0004002071     1     8     2     6
 -0.0005260094     1     8     2    11
 -0.0001103473     1     8     2    13
 -0.0036276185     1     8     3     3
 -0.0006928038     1     8     3     7
 -0.0002013155     1     8     3     9
 -0.0014510423     1     8     3    12
 0.1223465212     1     8     4     1
 -0.0077613089     1     8     4     2
 -0.0023545633     1     8     4     4
 -0.0018605181     1     8     4     6
 -0.0030398657     1     8     4    11
 -0.0006553484     1     8     4    13
 -0.0072861761     1     8     5     5
 0.0030675893     1     8     5    10
 0.0002370898     1     8     5    15
 -0.0146713693     1     8     6     1
 -0.0011868067     1     8     6     2
 0.0007006490     1     8     6     4
 -0.0004736126     1     8     6     6
 -0.0004259360     1     8     6    11
 -0.0001684893     1     8     6    13
 -0.0014582221     1     8     7     3
 -0.0006012392     1     8     7     7
 0.0003316354     1     8     7     9
 -0.0010359449     1     8     7    12
 -0.3084776292     1     8     8     1
 0.0020862505     1     8     8     2
 0.0018585409     1     8     8     4
 0.0009761766     1     8     8     6
 0.0011746197     1     8     8    11
 0.0007881330     1     8     8    13
 -0.0009870924     1     8     9     3
 -0.0000072044     1     8     9     7
 0.0002291056     1     8     9     9
 -0.0000022333     1     8     9    12
 0.0028475116     1     8    10     5
 -0.0013231661     1     8    10    10
 -0.0005750504     1     8    10    15
 0.0208806734     1     8    11     1
 -0.0035515897     1     8    11     2
 -0.0021032480     1     8    11     4
 -0.0014825077     1     8    11     6
 -0.0024835236     1     8    11    11
 -0.0010122630     1     8    11    13
 -0.0035559158     1     8    12     3
 -0.0011446413     1     8    12     7
 0.0008365796     1     8    12     9
 -0.0027245684     1     8    12    12
 0.0203612082     1     8    13     1
 -0.0010475130     1     8    13     2
 0.0011663929     1     8    13     4
 -0.0003016190     1     8    13     6
 -0.0003356037     1     8    13    11
 -0.0004563856     1     8    13    13
 -0.0004029000     1     8    14    14
 0.0000150783     1     8    15     5
 -0.0004915467     1     8    15    10
 -0.0003602832     1     8    15    15
 -0.0014015708     1     9     2     3
 -0.0001511936     1     9     2     7
 -0.0001322420     1     9     2    12
 0.0457630667     1     9     3     1
 -0.0052296873     1     9     3     2
 -0.0017322447     1     9     3     4
 -0.0012073011     1     9     3     6
 0.0002013155     1     9     3     8
 -0.0016224948     1     9     3    11
 -0.0011446700     1     9     3    13
 -0.0028937754     1     9     4     3
 -0.0007309218     1     9     4     7
 -0.0015791105     1     9     4    12
 -0.0004172813     1     9     5    14
 -0.0003261273     1     9     6     3
 -0.0003220979     1     9     6     7
 -0.0004194093     1     9     6    12
 0.0303519333     1     9     7     1
 -0.0012287742     1     9     7     2
 0.0007950554     1     9     7     4
 -0.0003751573     1     9     7     6
 -0.0003316354     1     9     7     8
 -0.0001170306     1     9     7    11
 -0.0000171799     1     9     7    13
 -0.0007781813     1     9     8     3
 -0.0003392428     1     9     8     7
 -0.0008365471     1     9     8    12
 -0.3135934668     1     9     9     1
 0.0008490360     1     9     9     2
 0.0001224108     1     9     9     4
 0.0001995709     1     9     9     6
 -0.0002291056     1     9     9     8
 0.0005733164     1     9     9    11
 0.0002760198     1     9     9    13
 -0.0001127389     1     9    10    14
 0.0009746427     1     9    11     3
 0.0001081583     1     9    11     7
 0.0001922485     1     9    11    12
 0.0676032925     1     9    12     1
 -0.0026253900     1     9    12     2
 0.0019641069     1     9    12     4
 -0.0005299853     1     9    12     6
 -0.0008365796     1     9    12     8
 -0.0002951983     1     9    12    11
 -0.0001611324     1     9    12    13
 0.0002416331     1     9    13     3
 0.0001817350     1     9    13     7
 0.0002768233     1     9    13    12
 -0.0003582034     1     9    14     5
 -0.0001515745     1     9    14    10
 -0.0002866864     1     9    14    15
 -0.0002767859     1     9    15    14
 -0.0027429739     1    10     2     5
 -0.0003168915     1    10     2    15
 -0.0013318388     1    10     3    14
 0.0006633515     1    10     4     5
 -0.0012924646     1    10     4    15
 0.2219889571     1    10     5     1
 -0.0169328873     1    10     5     2
 0.0055551004     1    10     5     4
 -0.0027202437     1    10     5     6
 -0.0030675893     1    10     5     8
 -0.0033407907     1    10     5    11
 -0.0015114632     1    10     5    13
 0.0021136363     1    10     6     5
 -0.0001981994     1    10     6    15
 0.0002236940     1    10     7    14
 -0.0001893292     1    10     8     5
 -0.0000823006     1    10     8    15
 0.0000394463     1    10     9    14
 -0.3949408640     1    10    10     1
 0.0073322976     1    10    10     2
 -0.0022845650     1    10    10     4
 0.0022836829     1    10    10     6
 0.0013231661     1    10    10     8
 0.0013218815     1    10    10    11
 0.0007649721     1    10    10    13
 -0.0008502059     1    10    11     5
 0.0004031918     1    10    11    15
 0.0001353026     1    10    12    14
 0.0000004261     1    10    13     5
 -0.0000698865     1    10    13    15
 -0.0021264895     1    10    14     3
 0.0000042903     1    10    14     7
 0.0001515745     1    10    14     9
 -0.0003589934     1    10    14    12
 -0.0394747702     1    10    15     1
 0.0016348636     1    10    15     2
 -0.0028118626     1    10    15     4
 0.0002958339     1    10    15     6
 0.0004915467     1    10    15     8
 0.0004067120     1    10    15    11
 0.0000048100     1    10    15    13
 -0.1100868626     1    11     2     1
 0.0033755567     1    11     2     2
 0.0013821279     1    11     2     4
 0.0004735840     1    11     2     6
 0.0005260094     1    11     2     8
 -0.0002324791     1    11     2    13
 -0.0001961688     1    11     3     3
 -0.0005220603     1    11     3     7
 0.0016224948     1    11     3     9
 -0.0018242986     1    11     3    12
 -0.1599130886     1    11     4     1
 0.0144358685     1    11     4     2
 -0.0095673468     1    11     4     4
 0.0013756141     1    11     4     6
 0.0030398657     1    11     4     8
 -0.0011274686     1    11     4    13
 -0.0077339109     1    11     5     5
 0.0033407907     1    11     5    10
 0.0022833144     1    11     5    15
 -0.1063400352     1    11     6     1
 0.0027640813     1    11     6     2
 -0.0031714324     1    11     6     4
 0.0006391483     1    11     6     6
 0.0004259360     1    11     6     8
 -0.0000117466     1    11     6    13
 -0.0016433298     1    11     7     3
 -0.0001852577     1    11     7     7
 0.0001170306     1    11     7     9
 -0.0011566897     1    11     7    12
 0.0208806734     1    11     8     1
 -0.0030516813     1    11     8     2
 0.0009318092     1    11     8     4
 -0.0010580403     1    11     8     6
 -0.0011746197     1    11     8     8
 -0.0006750317     1    11     8    13
 0.0025878560     1    11     9     3
 0.0002233008     1    11     9     7
 -0.0005733164     1    11     9     9
 0.0004874197     1    11     9    12
 0.0025696129     1    11    10     5
 -0.0013218815     1    11    10    10
 -0.0000032767     1    11    10    15
 -0.4224244971     1    11    11     1
 0.0062367539     1    11    11     2
 -0.0062535398     1    11    11     4
 0.0009675462     1    11    11     6
 0.0024835236     1    11    11     8
 0.0000394381     1    11    11    13
 -0.0046616633     1    11    12     3
 -0.0012465058     1    11    12     7
 0.0002951983     1    11    12     9
 -0.0026964024     1    11    12    12
 -0.0396035264     1    11    13     1
 0.0022148878     1    11    13     2
 -0.0036924239     1    11    13     4
 0.0003624515     1    11    13     6
 0.0003356037     1    11    13     8
 0.0007046041     1    11    13    13
 0.0008677327     1    11    14    14
 0.0029959165     1    11    15     5
 -0.0004067120     1    11    15    10
 0.0003708338     1    11    15    15
 0.0049782149     1    12     2     3
 0.0003799398     1    12     2     7
 0.0001322420     1    12     2     9
 -0.2228040600     1    12     3     1
 0.0199055613     1    12     3     2
 -0.0028526076     1    12     3     4
 0.0029918633     1    12     3     6
 0.0014510423     1    12     3     8
 0.0018242986     1    12     3    11
 0.0028475346     1    12     3    13
 0.0021792590     1    12     4     3
 0.0001717151     1    12     4     7
 0.0015791105     1    12     4     9
 0.0017775448     1    12     5    14
 -0.0013026504     1    12     6     3
 0.0005887801     1    12     6     7
 0.0004194093     1    12     6     9
 -0.1281021604     1    12     7     1
 0.0052611079     1    12     7     2
 -0.0017715036     1    12     7     4
 0.0018255495     1    12     7     6
 0.0010359449     1    12     7     8
 0.0011566897     1    12     7    11
 0.0003240226     1    12     7    13
 -0.0021562822     1    12     8     3
 -0.0001086290     1    12     8     7
 0.0008365471     1    12     8     9
 0.0676032925     1    12     9     1
 -0.0025012717     1    12     9     2
 0.0035470812     1    12     9     4
 -0.0001116667     1    12     9     6
 0.0000022333     1    12     9     8
 -0.0004874197     1    12     9    11
 -0.0004387930     1    12     9    13
 0.0004940163     1    12    10    14
 -0.0027917360     1    12    11     3
 -0.0000906348     1    12    11     7
 -0.0001922485     1    12    11     9
 -0.4505001019     1    12    12     1
 0.0111570542     1    12    12     2
 -0.0048441999     1    12    12     4
 0.0027770360     1    12    12     6
 0.0027245684     1    12    12     8
 0.0026964024     1    12    12    11
 0.0012278519     1    12    12    13
 0.0008278515     1    12    13     3
 -0.0002390818     1    12    13     7
 -0.0002768233     1    12    13     9
 0.0020875033     1    12    14     5
 0.0003589934     1    12    14    10
 0.0011204364     1    12    14    15
 0.0011551207     1    12    15    14
 -0.0536799429     1    13     2     1
 0.0014341620     1    13     2     2
 0.0010129334     1    13     2     4
 0.0002917947     1    13     2     6
 0.0001103473     1    13     2     8
 0.0002324791     1    13     2    11
 -0.0033195881     1    13     3     3
 -0.0011339211     1    13     3     7
 0.0011446700     1    13     3     9
 -0.0028475346     1    13     3    12
 -0.0577898124     1    13     4     1
 0.0061180789     1    13     4     2
 -0.0014404951     1    13     4     4
 0.0010136631     1    13     4     6
 0.0006553484     1    13     4     8
 0.0011274686     1    13     4    11
 -0.0035380144     1    13     5     5
 0.0015114632     1    13     5    10
 0.0009557704     1    13     5    15
 -0.0476744767     1    13     6     1
 0.0011232865     1    13     6     2
 -0.0012297683     1    13     6     4
 0.0002579433     1    13     6     6
 0.0001684893     1    13     6     8
 0.0000117466     1    13     6    11
 -0.0004069388     1    13     7     3
 -0.0000080705     1    13     7     7
 0.0000171799     1    13     7     9
 -0.0003240226     1    13     7    12
 0.0203612082     1    13     8     1
 -0.0009544330     1    13     8     2
 0.0018253805     1    13     8     4
 -0.0001337001     1    13     8     6
 -0.0007881330     1    13     8     8
 0.0006750317     1    13     8    11
 0.0013953262     1    13     9     3
 0.0001979794     1    13     9     7
 -0.0002760198     1    13     9     9
 0.0004387930     1    13     9    12
 0.0015415448     1    13    10     5
 -0.0007649721     1    13    10    10
 -0.0000740373     1    13    10    15
 -0.0396035264     1    13    11     1
 0.0024481078     1    13    11     2
 -0.0025604009     1    13    11     4
 0.0003740344     1    13    11     6
 0.0010122630     1    13    11     8
 -0.0000394381     1    13    11    11
 -0.0020461397     1    13    12     3
 -0.0005596694     1    13    12     7
 0.0001611324     1    13    12     9
 -0.0012278519     1    13    12    12
 -0.3355142701     1    13    13     1
 0.0006964235     1    13    13     2
 -0.0029845852     1    13    13     4
 -0.0001631306     1    13    13     6
 0.0004563856     1    13    13     8
 -0.0007046041     1    13    13    11
 0.0003455521     1    13    14    14
 0.0008157263     1    13    15     5
 -0.0000048100     1    13    15    10
 0.0001946223     1    13    15    15
 -0.0030008523     1    14     3     5
 0.0013318388     1    14     3    10
 0.0003808197     1    14     3    15
 -0.0026889719     1    14     5     3
 -0.0007821991     1    14     5     7
 0.0004172813     1    14     5     9
 -0.0017775448     1    14     5    12
 0.0005125680     1    14     7     5
 -0.0002236940     1    14     7    10
 -0.0000605244     1    14     7    15
 0.0000691418     1    14     9     5
 -0.0000394463     1    14     9    10
 -0.0000097397     1    14     9    15
 -0.0007864279     1    14    10     3
 -0.0002214348     1    14    10     7
 0.0001127389     1    14    10     9
 -0.0004940163     1    14    10    12
 0.0003082863     1    14    12     5
 -0.0001353026     1    14    12    10
 -0.0000355426     1    14    12    15
 -0.3243180709     1    14    14     1
 -0.0002521810     1    14    14     2
 -0.0018845171     1    14    14     4
 -0.0003737286     1    14    14     6
 0.0004029000     1    14    14     8
 -0.0008677327     1    14    14    11
 -0.0003455521     1    14    14    13
 -0.0018335397     1    14    15     3
 -0.0005095368     1    14    15     7
 0.0002767859     1    14    15     9
 -0.0011551207     1    14    15    12
 -0.0014838552     1    15     2     5
 0.0003168915     1    15     2    10
 -0.0003808197     1    15     3    14
 -0.0027278318     1    15     4     5
 0.0012924646     1    15     4    10
 0.0550398985     1    15     5     1
 -0.0053226726     1    15     5     2
 -0.0011953819     1    15     5     4
 -0.0013326421     1    15     5     6
 -0.0002370898     1    15     5     8
 -0.0022833144     1    15     5    11
 -0.0009557704     1    15     5    13
 0.0001372700     1    15     6     5
 0.0001981994     1    15     6    10
 0.0000605244     1    15     7    14
 -0.0002219925     1    15     8     5
 0.0000823006     1    15     8    10
 0.0000097397     1    15     9    14
 -0.0394747702     1    15    10     1
 0.0019550814     1    15    10     2
 -0.0014984980     1    15    10     4
 0.0004935429     1    15    10     6