&FCI NORB= 10,NELEC= 10,MS2=0,
 ORBSYM=1,1,1,1,1,1,1,1,1,1
 ISYM=1,
&END
 0.9835464997     1     1     2     2
 0.0687360523     1     1     2     4
 -0.1348678878     1     1     2     6
 -0.1088128669     1     1     2     9
 0.0365668073     1     1     2    10
 0.8683075978     1     1     3     3
 0.1610925917     1     1     3     7
 0.0955232001     1     1     3     8
 0.0687360523     1     1     4     2
 0.9516442637     1     1     4     4
 0.0705515995     1     1     4     6
 0.0568412660     1     1     4     9
 -0.2433572424     1     1     4    10
 0.9969505837     1     1     5     5
 -0.1348678878     1     1     6     2
 0.0705515995     1     1     6     4
 0.3482784131     1     1     6     6
 0.1074289927     1     1     6     9
 -0.0899976962     1     1     6    10
 0.1610925917     1     1     7     3
 0.3257849220     1     1     7     7
 0.0991006447     1     1     7     8
 0.0955232001     1     1     8     3
 0.0991006447     1     1     8     7
 0.4552366617     1     1     8     8
 -0.1088128669     1     1     9     2
 0.0568412660     1     1     9     4
 0.1074289927     1     1     9     6
 0.4550759623     1     1     9     9
 -0.0557618344     1     1     9    10
 0.0365668073     1     1    10     2
 -0.2433572424     1     1    10     4
 -0.0899976962     1     1    10     6
 -0.0557618344     1     1    10     9
 0.5362040274     1     1    10    10
 -0.9835464997     1     2     2     1
 -0.0069907150     1     2     2     4
 -0.0012909149     1     2     2     6
 -0.0017388320     1     2     2     9
 0.0055624484     1     2     2    10
 0.0310112113     1     2     3     3
 0.0126134780     1     2     3     7
 0.0113254892     1     2     3     8
 -0.0687360523     1     2     4     1
 0.0360187721     1     2     4     4
 0.0069536122     1     2     4     6
 0.0076975092     1     2     4     9
 -0.0216694440     1     2     4    10
 0.0408671904     1     2     5     5
 0.1348678878     1     2     6     1
 0.0066217352     1     2     6     4
 0.0018150387     1     2     6     6
 0.0021955819     1     2     6     9
 -0.0051388980     1     2     6    10
 0.0090406893     1     2     7     3
 0.0048245494     1     2     7     7
 0.0042669528     1     2     7     8
 0.0073563567     1     2     8     3
 0.0037901646     1     2     8     7
 0.0033799723     1     2     8     8
 0.1088128669     1     2     9     1
 0.0065967254     1     2     9     4
 0.0019094950     1     2     9     6
 0.0017407937     1     2     9     9
 -0.0052235632     1     2     9    10
 -0.0365668073     1     2    10     1
 -0.0158720734     1     2    10     4
 -0.0036848610     1     2    10     6
 -0.0043254668     1     2    10     9
 0.0132825143     1     2    10    10
 0.0026599317     1     3     2     7
 0.0032708393     1     3     2     8
 -0.8683075978     1     3     3     1
 -0.0310112113     1     3     3     2
 -0.0106032116     1     3     3     4
 0.0045162880     1     3     3     6
 0.0002870124     1     3     3     9
 0.0025492475     1     3     3    10
 -0.0012672631     1     3     4     7
 -0.0049140767     1     3     4     8
 0.0021204705     1     3     6     7
 -0.0004187991     1     3     6     8
 -0.1610925917     1     3     7     1
 -0.0090406893     1     3     7     2
 -0.0032471744     1     3     7     4
 0.0044208242     1     3     7     6
 0.0024347553     1     3     7     9
 -0.0001873450     1     3     7    10
 -0.0955232001     1     3     8     1
 -0.0073563567     1     3     8     2
 -0.0023786754     1     3     8     4
 0.0026612648     1     3     8     6
 0.0045423418     1     3     8     9
 -0.0038432500     1     3     8    10
 0.0019660116     1     3     9     7
 0.0028824791     1     3     9     8
 0.0001935838     1     3    10     7
 -0.0005106183     1     3    10     8
 -0.0687360523     1     4     2     1
 0.0069907150     1     4     2     2
 -0.0002863852     1     4     2     6
 0.0005459840     1     4     2     9
 -0.0042549874     1     4     2    10
 0.0106032116     1     4     3     3
 0.0021733559     1     4     3     7
 -0.0024004191     1     4     3     8
 -0.9516442637     1     4     4     1
 -0.0360187721     1     4     4     2
 0.0090287662     1     4     4     6
 0.0095072365     1     4     4     9
 -0.0063483038     1     4     4    10
 0.0137672731     1     4     5     5
 -0.0705515995     1     4     6     1
 -0.0066217352     1     4     6     2
 0.0040336762     1     4     6     6
 0.0028200703     1     4     6     9
 -0.0037747186     1     4     6    10
 0.0032471744     1     4     7     3
 0.0027251385     1     4     7     7
 0.0011511365     1     4     7     8
 0.0023786754     1     4     8     3
 0.0028565602     1     4     8     7
 0.0028070280     1     4     8     8
 -0.0568412660     1     4     9     1
 -0.0065967254     1     4     9     2
 0.0029244910     1     4     9     6
 0.0059457485     1     4     9     9
 -0.0019948878     1     4     9    10
 0.2433572424     1     4    10     1
 0.0158720734     1     4    10     2
 -0.0080828619     1     4    10     6
 -0.0064830965     1     4    10     9
 0.0029050365     1     4    10    10
 -0.9969505837     1     5     5     1
 -0.0408671904     1     5     5     2
 -0.0137672731     1     5     5     4
 0.0088128453     1     5     5     6
 0.0117274592     1     5     5     9
 0.0029422327     1     5     5    10
 0.1348678878     1     6     2     1
 0.0012909149     1     6     2     2
 0.0002863852     1     6     2     4
 0.0003069591     1     6     2     9
 -0.0014486996     1     6     2    10
 -0.0045162880     1     6     3     3
 -0.0022671976     1     6     3     7
 -0.0030652863     1     6     3     8
 -0.0705515995     1     6     4     1
 -0.0069536122     1     6     4     2
 -0.0090287662     1     6     4     4
 -0.0001407135     1     6     4     9
 0.0042646396     1     6     4    10
 -0.0088128453     1     6     5     5
 -0.3482784131     1     6     6     1
 -0.0018150387     1     6     6     2
 -0.0040336762     1     6     6     4
 -0.0003801171     1     6     6     9
 0.0018869562     1     6     6    10
 -0.0044208242     1     6     7     3
 -0.0017683000     1     6     7     7
 -0.0017493659     1     6     7     8
 -0.0026612648     1     6     8     3
 -0.0008416342     1     6     8     7
 -0.0005980523     1     6     8     8
 -0.1074289927     1     6     9     1
 -0.0019094950     1     6     9     2
 -0.0029244910     1     6     9     4
 0.0007006994     1     6     9     9
 0.0015947039     1     6     9    10
 0.0899976962     1     6    10     1
 0.0036848610     1     6    10     2
 0.0080828619     1     6    10     4
 0.0005825886     1     6    10     9
 -0.0051166673     1     6    10    10
 -0.0026599317     1     7     2     3
 0.0004607803     1     7     2     8
 -0.1610925917     1     7     3     1
 -0.0126134780     1     7     3     2
 -0.0021733559     1     7     3     4
 0.0022671976     1     7     3     6
 0.0004577083     1     7     3     9
 -0.0002671385     1     7     3    10
 0.0012672631     1     7     4     3
 -0.0017175070     1     7     4     8
 -0.0021204705     1     7     6     3
 -0.0009082845     1     7     6     8
 -0.3257849220     1     7     7     1
 -0.0048245494     1     7     7     2
 -0.0027251385     1     7     7     4
 0.0017683000     1     7     7     6
 0.0009181485     1     7     7     9
 0.0006128518     1     7     7    10
 -0.0991006447     1     7     8     1
 -0.0037901646     1     7     8     2
 -0.0028565602     1     7     8     4
 0.0008416342     1     7     8     6
 0.0016016706     1     7     8     9
 -0.0005445647     1     7     8    10
 -0.0019660116     1     7     9     3
 0.0005359636     1     7     9     8
 -0.0001935838     1     7    10     3
 -0.0002917120     1     7    10     8
 -0.0032708393     1     8     2     3
 -0.0004607803     1     8     2     7
 -0.0955232001     1     8     3     1
 -0.0113254892     1     8     3     2
 0.0024004191     1     8     3     4
 0.0030652863     1     8     3     6
 0.0016807398     1     8     3     9
 -0.0031586316     1     8     3    10
 0.0049140767     1     8     4     3
 0.0017175070     1     8     4     7
 0.0004187991     1     8     6     3
 0.0009082845     1     8     6     7
 -0.0991006447     1     8     7     1
 -0.0042669528     1     8     7     2
 -0.0011511365     1     8     7     4
 0.0017493659     1     8     7     6
 0.0010632611     1     8     7     9
 -0.0002551490     1     8     7    10
 -0.4552366617     1     8     8     1
 -0.0033799723     1     8     8     2
 -0.0028070280     1     8     8     4
 0.0005980523     1     8     8     6
 0.0012336609     1     8     8     9
 -0.0002028458     1     8     8    10
 -0.0028824791     1     8     9     3
 -0.0005359636     1     8     9     7
 0.0005106183     1     8    10     3
 0.0002917120     1     8    10     7
 0.1088128669     1     9     2     1
 0.0017388320     1     9     2     2
 -0.0005459840     1     9     2     4
 -0.0003069591     1     9     2     6
 -0.0009279533     1     9     2    10
 -0.0002870124     1     9     3     3
 -0.0004577083     1     9     3     7
 -0.0016807398     1     9     3     8
 -0.0568412660     1     9     4     1
 -0.0076975092     1     9     4     2
 -0.0095072365     1     9     4     4
 0.0001407135     1     9     4     6
 0.0044581269     1     9     4    10
 -0.0117274592     1     9     5     5
 -0.1074289927     1     9     6     1
 -0.0021955819     1     9     6     2
 -0.0028200703     1     9     6     4
 0.0003801171     1     9     6     6
 0.0010152234     1     9     6    10
 -0.0024347553     1     9     7     3
 -0.0009181485     1     9     7     7
 -0.0010632611     1     9     7     8
 -0.0045423418     1     9     8     3
 -0.0016016706     1     9     8     7
 -0.0012336609     1     9     8     8
 -0.4550759623     1     9     9     1
 -0.0017407937     1     9     9     2
 -0.0059457485     1     9     9     4
 -0.0007006994     1     9     9     6
 0.0035502383     1     9     9    10
 0.0557618344     1     9    10     1
 0.0043254668     1     9    10     2
 0.0064830965     1     9    10     4
 -0.0005825886     1     9    10     6
 -0.0039822830     1     9    10    10
 -0.0365668073     1    10     2     1
 -0.0055624484     1    10     2     2
 0.0042549874     1    10     2     4
 0.0014486996     1    10     2     6
 0.0009279533     1    10     2     9
 -0.0025492475     1    10     3     3
 0.0002671385     1    10     3     7
 0.0031586316     1    10     3     8
 0.2433572424     1    10     4     1
 0.0216694440     1    10     4     2
 0.0063483038     1    10     4     4
 -0.0042646396     1    10     4     6
 -0.0044581269     1    10     4     9
 -0.0029422327     1    10     5     5
 0.0899976962     1    10     6     1
 0.0051388980     1    10     6     2
 0.0037747186     1    10     6     4
 -0.0018869562     1    10     6     6
 -0.0010152234     1    10     6     9
 0.0001873450     1    10     7     3
 -0.0006128518     1    10     7     7
 0.0002551490     1    10     7     8
 0.0038432500     1    10     8     3
 0.0005445647     1    10     8     7
 0.0002028458     1    10     8     8
 0.0557618344     1    10     9     1
 0.0052235632     1    10     9     2
 0.0019948878     1    10     9     4
 -0.0015947039     1    10     9     6
 -0.0035502383     1    10     9     9
 -0.5362040274     1    10    10     1
 -0.0132825143     1    10    10     2
 -0.0029050365     1    10    10     4
 0.0051166673     1    10    10     6
 0.0039822830     1    10    10     9
 -0.9835464997     2     1     1     2
 -0.0687360523     2     1     1     4
 0.1348678878     2     1     1     6
 0.1088128669     2     1     1     9
 -0.0365668073     2     1     1    10
 0.0310112113     2     1     3     3
 0.0090406893     2     1     3     7
 0.0073563567     2     1     3     8
 -0.0069907150     2     1     4     2
 0.0360187721     2     1     4     4
 0.0066217352     2     1     4     6
 0.0065967254     2     1     4     9
 -0.0158720734     2     1     4    10
 0.0408671904     2     1     5     5
 -0.0012909149     2     1     6     2
 0.0069536122     2     1     6     4
 0.0018150387     2     1     6     6
 0.0019094950     2     1     6     9
 -0.0036848610     2     1     6    10
 0.0126134780     2     1     7     3
 0.0048245494     2     1     7     7
 0.0037901646     2     1     7     8
 0.0113254892     2     1     8     3
 0.0042669528     2     1     8     7
 0.0033799723     2     1     8     8
 -0.0017388320     2     1     9     2
 0.0076975092     2     1     9     4
 0.0021955819     2     1     9     6
 0.0017407937     2     1     9     9
 -0.0043254668     2     1     9    10
 0.0055624484     2     1    10     2
 -0.0216694440     2     1    10     4
 -0.0051388980     2     1    10     6
 -0.0052235632     2     1    10     9
 0.0132825143     2     1    10    10
 0.9835464997     2     2     1     1
 0.0069907150     2     2     1     4
 0.0012909149     2     2     1     6
 0.0017388320     2     2     1     9
 -0.0055624484     2     2     1    10
 0.5276340726     2     2     3     3
 0.0646823211     2     2     3     7
 0.0188808997     2     2     3     8
 0.0069907150     2     2     4     1
 0.5514891290     2     2     4     4
 0.0301468614     2     2     4     6
 0.0183842390     2     2     4     9
 -0.0905587373     2     2     4    10
 0.5779992608     2     2     5     5
 0.0012909149     2     2     6     1
 0.0301468614     2     2     6     4
 0.3022748254     2     2     6     6
 0.0586869617     2     2     6     9
 -0.0527584404     2     2     6    10
 0.0646823211     2     2     7     3
 0.2843239681     2     2     7     7
 0.0607188711     2     2     7     8
 0.0188808997     2     2     8     3
 0.0607188711     2     2     8     7
 0.4059827989     2     2     8     8
 0.0017388320     2     2     9     1
 0.0183842390     2     2     9     4
 0.0586869617     2     2     9     6
 0.4074671306     2     2     9     9
 -0.0147280476     2     2     9    10
 -0.0055624484     2     2    10     1
 -0.0905587373     2     2    10     4
 -0.0527584404     2     2    10     6
 -0.0147280476     2     2    10     9
 0.4054483669     2     2    10    10
 -0.0026599317     2     3     1     7
 -0.0032708393     2     3     1     8
 -0.0310112113     2     3     3     1
 -0.5276340726     2     3     3     2
 -0.0022497382     2     3     3     4
 0.0623663826     2     3     3     6
 0.0683430538     2     3     3     9
 -0.0154333089     2     3     3    10
 0.0105447901     2     3     4     7
 0.0332242680     2     3     4     8
 -0.0339977146     2     3     6     7
 0.0000686309     2     3     6     8
 -0.0126134780     2     3     7     1
 -0.0646823211     2     3     7     2
 0.0012679806     2     3     7     4
 -0.0206204797     2     3     7     6
 -0.0015981646     2     3     7     9
 -0.0000616745     2     3     7    10
 -0.0113254892     2     3     8     1
 -0.0188808997     2     3     8     2
 0.0060467245     2     3     8     4
 0.0024500134     2     3     8     6
 -0.0285880200     2     3     8     9
 0.0264909638     2     3     8    10
 -0.0160960184     2     3     9     7
 -0.0293002725     2     3     9     8
 0.0032638426     2     3    10     7
 0.0232651744     2     3    10     8
 0.0687360523     2     4     1     1
 -0.0069907150     2     4     1     2
 0.0002863852     2     4     1     6
 -0.0005459840     2     4     1     9
 0.0042549874     2     4     1    10
 0.0022497382     2     4     3     3
 0.0093894664     2     4     3     7
 0.0274788380     2     4     3     8
 -0.0360187721     2     4     4     1
 -0.5514891290     2     4     4     2
 0.0612403970     2     4     4     6
 0.0375812676     2     4     4     9
 -0.0219625589     2     4     4    10
 0.0049674212     2     4     5     5
 -0.0069536122     2     4     6     1
 -0.0301468614     2     4     6     2
 -0.0103018822     2     4     6     6
 0.0033614098     2     4     6     9
 0.0215964775     2     4     6    10
 -0.0012679806     2     4     7     3
 -0.0124119847     2     4     7     7
 -0.0023529661     2     4     7     8
 -0.0060467245     2     4     8     3
 -0.0081540367     2     4     8     7
 -0.0051723887     2     4     8     8
 -0.0076975092     2     4     9     1
 -0.0183842390     2     4     9     2
 0.0029939816     2     4     9     6
 -0.0257756837     2     4     9     9
 0.0055229379     2     4     9    10
 0.0216694440     2     4    10     1
 0.0905587373     2     4    10     2
 0.0053189923     2     4    10     6
 -0.0078414165     2     4    10     9
 0.0209870128     2     4    10    10
 -0.0408671904     2     5     5     1
 -0.5779992608     2     5     5     2
 -0.0049674212     2     5     5     4
 0.0603975356     2     5     5     6
 0.0227977893     2     5     5     9
 -0.0250955665     2     5     5    10
 -0.1348678878     2     6     1     1
 -0.0012909149     2     6     1     2
 -0.0002863852     2     6     1     4
 -0.0003069591     2     6     1     9
 0.0014486996     2     6     1    10
 -0.0623663826     2     6     3     3
 -0.0128098479     2     6     3     7
 -0.0019668270     2     6     3     8
 -0.0066217352     2     6     4     1
 -0.0301468614     2     6     4     2
 -0.0612403970     2     6     4     4
 0.0001206143     2     6     4     9
 0.0155675029     2     6     4    10
 -0.0603975356     2     6     5     5
 -0.0018150387     2     6     6     1
 -0.3022748254     2     6     6     2
 0.0103018822     2     6     6     4
 -0.0053657549     2     6     6     9
 0.0067720467     2     6     6    10
 0.0206204797     2     6     7     3
 -0.0081113112     2     6     7     7
 -0.0128951324     2     6     7     8
 -0.0024500134     2     6     8     3
 -0.0073323383     2     6     8     7
 -0.0254463226     2     6     8     8
 -0.0021955819     2     6     9     1
 -0.0586869617     2     6     9     2
 -0.0029939816     2     6     9     4
 -0.0205295930     2     6     9     9
 -0.0006742622     2     6     9    10
 0.0051388980     2     6    10     1
 0.0527584404     2     6    10     2
 -0.0053189923     2     6    10     4
 -0.0019332461     2     6    10     9
 -0.0221915109     2     6    10    10
 0.0026599317     2     7     1     3
 -0.0004607803     2     7     1     8
 -0.0090406893     2     7     3     1
 -0.0646823211     2     7     3     2
 -0.0093894664     2     7     3     4
 0.0128098479     2     7     3     6
 0.0133323242     2     7     3     9
 -0.0031682878     2     7     3    10
 -0.0105447901     2     7     4     3
 0.0054370783     2     7     4     8
 0.0339977146     2     7     6     3
 -0.0055741168     2     7     6     8
 -0.0048245494     2     7     7     1
 -0.2843239681     2     7     7     2
 0.0124119847     2     7     7     4
 0.0081113112     2     7     7     6
 -0.0014266745     2     7     7     9
 -0.0002548366     2     7     7    10
 -0.0042669528     2     7     8     1
 -0.0607188711     2     7     8     2
 0.0081540367     2     7     8     4
 0.0073323383     2     7     8     6
 0.0022523752     2     7     8     9
 0.0000240963     2     7     8    10
 0.0160960184     2     7     9     3
 -0.0038805716     2     7     9     8
 -0.0032638426     2     7    10     3
 0.0039533916     2     7    10     8
 0.0032708393     2     8     1     3
 0.0004607803     2     8     1     7
 -0.0073563567     2     8     3     1
 -0.0188808997     2     8     3     2
 -0.0274788380     2     8     3     4
 0.0019668270     2     8     3     6
 -0.0000563305     2     8     3     9
 0.0027004927     2     8     3    10
 -0.0332242680     2     8     4     3
 -0.0054370783     2     8     4     7
 -0.0000686309     2     8     6     3
 0.0055741168     2     8     6     7
 -0.0037901646     2     8     7     1
 -0.0607188711     2     8     7     2
 0.0023529661     2     8     7     4
 0.0128951324     2     8     7     6
 0.0060966125     2     8     7     9
 -0.0040596378     2     8     7    10
 -0.0033799723     2     8     8     1
 -0.4059827989     2     8     8     2
 0.0051723887     2     8     8     4
 0.0254463226     2     8     8     6
 0.0122737478     2     8     8     9
 -0.0073447380     2     8     8    10
 0.0293002725     2     8     9     3
 0.0038805716     2     8     9     7
 -0.0232651744     2     8    10     3
 -0.0039533916     2     8    10     7
 -0.1088128669     2     9     1     1
 -0.0017388320     2     9     1     2
 0.0005459840     2     9     1     4
 0.0003069591     2     9     1     6
 0.0009279533     2     9     1    10
 -0.0683430538     2     9     3     3
 -0.0133323242     2     9     3     7
 0.0000563305     2     9     3     8
 -0.0065967254     2     9     4     1
 -0.0183842390     2     9     4     2
 -0.0375812676     2     9     4     4
 -0.0001206143     2     9     4     6
 0.0121806025     2     9     4    10
 -0.0227977893     2     9     5     5
 -0.0019094950     2     9     6     1
 -0.0586869617     2     9     6     2
 -0.0033614098     2     9     6     4
 0.0053657549     2     9     6     6
 0.0012937878     2     9     6    10
 0.0015981646     2     9     7     3
 0.0014266745     2     9     7     7
 -0.0060966125     2     9     7     8
 0.0285880200     2     9     8     3
 -0.0022523752     2     9     8     7
 -0.0122737478     2     9     8     8
 -0.0017407937     2     9     9     1
 -0.4074671306     2     9     9     2
 0.0257756837     2     9     9     4
 0.0205295930     2     9     9     6
 -0.0055572973     2     9     9    10
 0.0052235632     2     9    10     1
 0.0147280476     2     9    10     2
 0.0078414165     2     9    10     4
 0.0019332461     2     9    10     6
 -0.0118889677     2     9    10    10
 0.0365668073     2    10     1     1
 0.0055624484     2    10     1     2
 -0.0042549874     2    10     1     4
 -0.0014486996     2    10     1     6
 -0.0009279533     2    10     1     9
 0.0154333089     2    10     3     3
 0.0031682878     2    10     3     7
 -0.0027004927     2    10     3     8
 0.0158720734     2    10     4     1
 0.0905587373     2    10     4     2
 0.0219625589     2    10     4     4
 -0.0155675029     2    10     4     6
 -0.0121806025     2    10     4     9
 0.0250955665     2    10     5     5
 0.0036848610     2    10     6     1
 0.0527584404     2    10     6     2
 -0.0215964775     2    10     6     4
 -0.0067720467     2    10     6     6
 -0.0012937878     2    10     6     9
 0.0000616745     2    10     7     3
 0.0002548366     2    10     7     7
 0.0040596378     2    10     7     8
 -0.0264909638     2    10     8     3
 -0.0000240963     2    10     8     7
 0.0073447380     2    10     8     8
 0.0043254668     2    10     9     1
 0.0147280476     2    10     9     2
 -0.0055229379     2    10     9     4
 0.0006742622     2    10     9     6
 0.0055572973     2    10     9     9
 -0.0132825143     2    10    10     1
 -0.4054483669     2    10    10     2
 -0.0209870128     2    10    10     4
 0.0221915109     2    10    10     6
 0.0118889677     2    10    10     9
 -0.8683075978     3     1     1     3
 -0.1610925917     3     1     1     7
 -0.0955232001     3     1     1     8
 -0.0310112113     3     1     2     3
 -0.0090406893     3     1     2     7
 -0.0073563567     3     1     2     8
 -0.0106032116     3     1     4     3
 -0.0032471744     3     1     4     7
 -0.0023786754     3     1     4     8
 0.0045162880     3     1     6     3
 0.0044208242     3     1     6     7
 0.0026612648     3     1     6     8
 0.0026599317     3     1     7     2
 -0.0012672631     3     1     7     4
 0.0021204705     3     1     7     6
 0.0019660116     3     1     7     9
 0.0001935838     3     1     7    10
 0.0032708393     3     1     8     2
 -0.0049140767     3     1     8     4
 -0.0004187991     3     1     8     6
 0.0028824791     3     1     8     9
 -0.0005106183     3     1     8    10
 0.0002870124     3     1     9     3
 0.0024347553     3     1     9     7
 0.0045423418     3     1     9     8
 0.0025492475     3     1    10     3
 -0.0001873450     3     1    10     7
 -0.0038432500     3     1    10     8
 -0.0310112113     3     2     1     3
 -0.0126134780     3     2     1     7
 -0.0113254892     3     2     1     8
 -0.5276340726     3     2     2     3
 -0.0646823211     3     2     2     7
 -0.0188808997     3     2     2     8
 -0.0022497382     3     2     4     3
 0.0012679806     3     2     4     7
 0.0060467245     3     2     4     8
 0.0623663826     3     2     6     3
 -0.0206204797     3     2     6     7
 0.0024500134     3     2     6     8
 -0.0026599317     3     2     7     1
 0.0105447901     3     2     7     4
 -0.0339977146     3     2     7     6
 -0.0160960184     3     2     7     9
 0.0032638426     3     2     7    10
 -0.0032708393     3     2     8     1
 0.0332242680     3     2     8     4
 0.0000686309     3     2     8     6
 -0.0293002725     3     2     8     9
 0.0232651744     3     2     8    10
 0.0683430538     3     2     9     3
 -0.0015981646     3     2     9     7
 -0.0285880200     3     2     9     8
 -0.0154333089     3     2    10     3
 -0.0000616745     3     2    10     7
 0.0264909638     3     2    10     8
 0.8683075978     3     3     1     1
 0.0310112113     3     3     1     2
 0.0106032116     3     3     1     4
 -0.0045162880     3     3     1     6
 -0.0002870124     3     3     1     9
 -0.0025492475     3     3     1    10
 0.0310112113     3     3     2     1
 0.5276340726     3     3     2     2
 0.0022497382     3     3     2     4
 -0.0623663826     3     3     2     6
 -0.0683430538     3     3     2     9
 0.0154333089     3     3     2    10
 0.0106032116     3     3     4     1
 0.0022497382     3     3     4     2
 0.5630466510     3     3     4     4
 0.0318727135     3     3     4     6
 0.0231446562     3     3     4     9
 -0.0910768503     3     3     4    10
 0.5854426189     3     3     5     5
 -0.0045162880     3     3     6     1
 -0.0623663826     3     3     6     2
 0.0318727135     3     3     6     4
 0.3060155108     3     3     6     6
 0.0596777982     3     3     6     9
 -0.0527889976     3     3     6    10
 0.2692066898     3     3     7     7
 0.0455272532     3     3     7     8
 0.0455272532     3     3     8     7
 0.3796413292     3     3     8     8
 -0.0002870124     3     3     9     1
 -0.0683430538     3     3     9     2
 0.0231446562     3     3     9     4
 0.0596777982     3     3     9     6
 0.3902305526     3     3     9     9
 -0.0189411577     3     3     9    10
 -0.0025492475     3     3    10     1
 0.0154333089     3     3    10     2
 -0.0910768503     3     3    10     4
 -0.0527889976     3     3    10     6
 -0.0189411577     3     3    10     9
 0.3903082129     3     3    10    10
 -0.0106032116     3     4     1     3
 -0.0021733559     3     4     1     7
 0.0024004191     3     4     1     8
 -0.0022497382     3     4     2     3
 -0.0093894664     3     4     2     7
 -0.0274788380     3     4     2     8
 -0.5630466510     3     4     4     3
 -0.0783273432     3     4     4     7
 -0.0421649656     3     4     4     8
 -0.0318727135     3     4     6     3
 -0.0003903376     3     4     6     7
 -0.0033733449     3     4     6     8
 0.0012672631     3     4     7     1
 -0.0105447901     3     4     7     2
 0.0075300851     3     4     7     6
 -0.0026506251     3     4     7     9
 -0.0041926432     3     4     7    10
 0.0049140767     3     4     8     1
 -0.0332242680     3     4     8     2
 -0.0000854455     3     4     8     6
 -0.0091757204     3     4     8     9
 -0.0060544447     3     4     8    10
 -0.0231446562     3     4     9     3
 -0.0021221536     3     4     9     7
 0.0093947704     3     4     9     8
 0.0910768503     3     4    10     3
 0.0224027024     3     4    10     7
 0.0124468415     3     4    10     8
 -0.5854426189     3     5     5     3
 -0.0826763944     3     5     5     7
 -0.0342455012     3     5     5     8
 0.0045162880     3     6     1     3
 0.0022671976     3     6     1     7
 0.0030652863     3     6     1     8
 0.0623663826     3     6     2     3
 0.0128098479     3     6     2     7
 0.0019668270     3     6     2     8
 -0.0318727135     3     6     4     3
 -0.0071593869     3     6     4     7
 -0.0028776772     3     6     4     8
 -0.3060155108     3     6     6     3
 -0.0264399373     3     6     6     7
 0.0127109585     3     6     6     8
 -0.0021204705     3     6     7     1
 0.0339977146     3     6     7     2
 -0.0075300851     3     6     7     4
 0.0265237030     3     6     7     9
 -0.0013599559     3     6     7    10
 0.0004187991     3     6     8     1
 -0.0000686309     3     6     8     2
 0.0000854455     3     6     8     4
 -0.0071311596     3     6     8     9
 0.0081258665     3     6     8    10
 -0.0596777982     3     6     9     3
 -0.0136475928     3     6     9     7
 -0.0102565792     3     6     9     8
 0.0527889976     3     6    10     3
 0.0046601912     3     6    10     7
 -0.0044718382     3     6    10     8
 0.1610925917     3     7     1     1
 0.0126134780     3     7     1     2
 0.0021733559     3     7     1     4
 -0.0022671976     3     7     1     6
 -0.0004577083     3     7     1     9
 0.0002671385     3     7     1    10
 0.0090406893     3     7     2     1
 0.0646823211     3     7     2     2
 0.0093894664     3     7     2     4
 -0.0128098479     3     7     2     6
 -0.0133323242     3     7     2     9
 0.0031682878     3     7     2    10
 0.0032471744     3     7     4     1
 -0.0012679806     3     7     4     2
 0.0783273432     3     7     4     4
 0.0071593869     3     7     4     6
 -0.0007834562     3     7     4     9
 -0.0249194499     3     7     4    10
 0.0826763944     3     7     5     5
 -0.0044208242     3     7     6     1
 0.0206204797     3     7     6     2