&FCI NORB= 10,NELEC= 16,MS2=0,
 ORBSYM=1,1,1,1,1,1,1,1,1,1
 ISYM=1,
&END
 0.3951708915     1     1     2     2
 -0.0050764374     1     1     2     4
 0.5961857210     1     1     3     3
 -0.1106026061     1     1     3     6
 0.0333405438     1     1     3     9
 -0.0050764374     1     1     4     2
 0.4824073487     1     1     4     4
 0.4843011261     1     1     5     5
 -0.1106026061     1     1     6     3
 0.5632097530     1     1     6     6
 0.0464437489     1     1     6     9
 0.4496698066     1     1     7     7
 0.5352990683     1     1     8     8
 0.0333405438     1     1     9     3
 0.0464437489     1     1     9     6
 0.2245313924     1     1     9     9
 0.4012307848     1     1    10    10
 -0.3951708915     1     2     2     1
 -0.0041659150     1     2     2     3
 0.0127516198     1     2     2     6
 0.0025629554     1     2     2     9
 0.1502752847     1     2     3     4
 0.0050764374     1     2     4     1
 0.1503881092     1     2     4     3
 0.1296081861     1     2     4     6
 0.0417460330     1     2     4     9
 -0.1668388542     1     2     5     7
 0.1299414517     1     2     6     4
 -0.1666349030     1     2     7     5
 -0.1109663011     1     2     8    10
 0.0418025024     1     2     9     4
 -0.1107177323     1     2    10     8
 0.0041659150     1     3     2     2
 -0.0001138369     1     3     2     4
 -0.5961857210     1     3     3     1
 0.0090939845     1     3     3     6
 0.0026322843     1     3     3     9
 -0.1503881092     1     3     4     2
 -0.0052640234     1     3     4     4
 -0.0117641930     1     3     5     5
 0.1106026061     1     3     6     1
 -0.0177827801     1     3     6     6
 -0.0048708194     1     3     6     9
 -0.0087186375     1     3     7     7
 -0.0137314582     1     3     8     8
 -0.0333405438     1     3     9     1
 -0.0023064225     1     3     9     6
 -0.0009110857     1     3     9     9
 -0.0066898723     1     3    10    10
 0.0050764374     1     4     2     1
 0.0001138369     1     4     2     3
 -0.0003341449     1     4     2     6
 -0.0000673953     1     4     2     9
 -0.1502752847     1     4     3     2
 -0.4824073487     1     4     4     1
 0.0052640234     1     4     4     3
 -0.0027281925     1     4     4     6
 0.0000825849     1     4     4     9
 0.0060365528     1     4     5     7
 -0.1299414517     1     4     6     2
 0.0080949841     1     4     7     5
 0.0046993868     1     4     8    10
 -0.0418025024     1     4     9     2
 0.0054157920     1     4    10     8
 -0.0001998248     1     5     2     7
 -0.0020446311     1     5     4     7
 -0.4843011261     1     5     5     1
 0.0117641930     1     5     5     3
 0.0036700609     1     5     5     6
 0.0018115226     1     5     5     9
 0.1666349030     1     5     7     2
 -0.0080949841     1     5     7     4
 -0.0127516198     1     6     2     2
 0.0003341449     1     6     2     4
 0.1106026061     1     6     3     1
 -0.0090939845     1     6     3     3
 -0.0023073067     1     6     3     9
 -0.1296081861     1     6     4     2
 0.0027281925     1     6     4     4
 -0.0036700609     1     6     5     5
 -0.5632097530     1     6     6     1
 0.0177827801     1     6     6     3
 0.0042792517     1     6     6     9
 -0.0017396121     1     6     7     7
 -0.0040704727     1     6     8     8
 -0.0464437489     1     6     9     1
 0.0023064225     1     6     9     3
 0.0003886057     1     6     9     9
 -0.0009606777     1     6    10    10
 0.0001998248     1     7     2     5
 0.0020446311     1     7     4     5
 0.1668388542     1     7     5     2
 -0.0060365528     1     7     5     4
 -0.4496698066     1     7     7     1
 0.0087186375     1     7     7     3
 0.0017396121     1     7     7     6
 0.0014235555     1     7     7     9
 -0.0002353681     1     8     2    10
 -0.0015477475     1     8     4    10
 -0.5352990683     1     8     8     1
 0.0137314582     1     8     8     3
 0.0040704727     1     8     8     6
 0.0037379846     1     8     8     9
 0.1107177323     1     8    10     2
 -0.0054157920     1     8    10     4
 -0.0025629554     1     9     2     2
 0.0000673953     1     9     2     4
 -0.0333405438     1     9     3     1
 -0.0026322843     1     9     3     3
 0.0023073067     1     9     3     6
 -0.0417460330     1     9     4     2
 -0.0000825849     1     9     4     4
 -0.0018115226     1     9     5     5
 -0.0464437489     1     9     6     1
 0.0048708194     1     9     6     3
 -0.0042792517     1     9     6     6
 -0.0014235555     1     9     7     7
 -0.0037379846     1     9     8     8
 -0.2245313924     1     9     9     1
 0.0009110857     1     9     9     3
 -0.0003886057     1     9     9     6
 -0.0016104432     1     9    10    10
 0.0002353681     1    10     2     8
 0.0015477475     1    10     4     8
 0.1109663011     1    10     8     2
 -0.0046993868     1    10     8     4
 -0.4012307848     1    10    10     1
 0.0066898723     1    10    10     3
 0.0009606777     1    10    10     6
 0.0016104432     1    10    10     9
 -0.3951708915     2     1     1     2
 0.0050764374     2     1     1     4
 -0.0041659150     2     1     3     2
 0.1503881092     2     1     3     4
 0.1502752847     2     1     4     3
 0.1299414517     2     1     4     6
 0.0418025024     2     1     4     9
 -0.1666349030     2     1     5     7
 0.0127516198     2     1     6     2
 0.1296081861     2     1     6     4
 -0.1668388542     2     1     7     5
 -0.1107177323     2     1     8    10
 0.0025629554     2     1     9     2
 0.0417460330     2     1     9     4
 -0.1109663011     2     1    10     8
 0.3951708915     2     2     1     1
 0.0041659150     2     2     1     3
 -0.0127516198     2     2     1     6
 -0.0025629554     2     2     1     9
 0.0041659150     2     2     3     1
 0.5962044599     2     2     3     3
 -0.1107939413     2     2     3     6
 0.0332958159     2     2     3     9
 0.4823074857     2     2     4     4
 0.4845521809     2     2     5     5
 -0.0127516198     2     2     6     1
 -0.1107939413     2     2     6     3
 0.5640102588     2     2     6     6
 0.0466051903     2     2     6     9
 0.4495203526     2     2     7     7
 0.5356472901     2     2     8     8
 -0.0025629554     2     2     9     1
 0.0332958159     2     2     9     3
 0.0466051903     2     2     9     6
 0.2245691471     2     2     9     9
 0.4010966681     2     2    10    10
 -0.0041659150     2     3     1     2
 0.0001138369     2     3     1     4
 -0.5962044599     2     3     3     2
 0.0037673219     2     3     3     4
 -0.1502752847     2     3     4     1
 -0.0109796500     2     3     4     6
 -0.0025560781     2     3     4     9
 0.0132559692     2     3     5     7
 0.1107939413     2     3     6     2
 -0.0120210464     2     3     6     4
 0.0109410851     2     3     7     5
 0.0113895765     2     3     8    10
 -0.0332958159     2     3     9     2
 -0.0016915545     2     3     9     4
 0.0075191403     2     3    10     8
 -0.0050764374     2     4     1     1
 -0.0001138369     2     4     1     3
 0.0003341449     2     4     1     6
 0.0000673953     2     4     1     9
 -0.1503881092     2     4     3     1
 -0.0037673219     2     4     3     3
 0.0010303963     2     4     3     6
 -0.0006194869     2     4     3     9
 -0.4823074857     2     4     4     2
 -0.0097840477     2     4     5     5
 -0.1296081861     2     4     6     1
 0.0120210464     2     4     6     3
 -0.0162821634     2     4     6     6
 -0.0016275325     2     4     6     9
 -0.0094318740     2     4     7     7
 -0.0117805313     2     4     8     8
 -0.0417460330     2     4     9     1
 0.0016915545     2     4     9     3
 -0.0025870065     2     4     9     6
 -0.0006552574     2     4     9     9
 -0.0067127856     2     4    10    10
 0.0001998248     2     5     1     7
 0.0023001442     2     5     3     7
 -0.4845521809     2     5     5     2
 0.0097840477     2     5     5     4
 -0.0009631113     2     5     6     7
 0.1668388542     2     5     7     1
 -0.0109410851     2     5     7     3
 0.0033374694     2     5     7     6
 -0.0004739222     2     5     7     9
 -0.0003585647     2     5     9     7
 0.0127516198     2     6     1     2
 -0.0003341449     2     6     1     4
 0.1107939413     2     6     3     2
 -0.0010303963     2     6     3     4
 -0.1299414517     2     6     4     1
 0.0109796500     2     6     4     3
 0.0013140199     2     6     4     9
 -0.0042835551     2     6     5     7
 -0.5640102588     2     6     6     2
 0.0162821634     2     6     6     4
 -0.0033374694     2     6     7     5
 -0.0048633366     2     6     8    10
 -0.0466051903     2     6     9     2
 0.0025870065     2     6     9     4
 -0.0021793065     2     6    10     8
 -0.0001998248     2     7     1     5
 -0.0023001442     2     7     3     5
 0.1666349030     2     7     5     1
 -0.0132559692     2     7     5     3
 0.0042835551     2     7     5     6
 -0.0000804084     2     7     5     9
 0.0009631113     2     7     6     5
 -0.4495203526     2     7     7     2
 0.0094318740     2     7     7     4
 0.0003585647     2     7     9     5
 0.0002353681     2     8     1    10
 0.0026646161     2     8     3    10
 -0.0020271982     2     8     6    10
 -0.5356472901     2     8     8     2
 0.0117805313     2     8     8     4
 -0.0002569615     2     8     9    10
 0.1109663011     2     8    10     1
 -0.0075191403     2     8    10     3
 0.0021793065     2     8    10     6
 -0.0011031324     2     8    10     9
 0.0025629554     2     9     1     2
 -0.0000673953     2     9     1     4
 -0.0332958159     2     9     3     2
 0.0006194869     2     9     3     4
 -0.0418025024     2     9     4     1
 0.0025560781     2     9     4     3
 -0.0013140199     2     9     4     6
 0.0000804084     2     9     5     7
 -0.0466051903     2     9     6     2
 0.0016275325     2     9     6     4
 0.0004739222     2     9     7     5
 0.0009422994     2     9     8    10
 -0.2245691471     2     9     9     2
 0.0006552574     2     9     9     4
 0.0011031324     2     9    10     8
 -0.0002353681     2    10     1     8
 -0.0026646161     2    10     3     8
 0.0020271982     2    10     6     8
 0.1107177323     2    10     8     1
 -0.0113895765     2    10     8     3
 0.0048633366     2    10     8     6
 -0.0009422994     2    10     8     9
 0.0002569615     2    10     9     8
 -0.4010966681     2    10    10     2
 0.0067127856     2    10    10     4
 -0.5961857210     3     1     1     3
 0.1106026061     3     1     1     6
 -0.0333405438     3     1     1     9
 0.0041659150     3     1     2     2
 -0.1503881092     3     1     2     4
 -0.0001138369     3     1     4     2
 -0.0052640234     3     1     4     4
 -0.0117641930     3     1     5     5
 0.0090939845     3     1     6     3
 -0.0177827801     3     1     6     6
 -0.0023064225     3     1     6     9
 -0.0087186375     3     1     7     7
 -0.0137314582     3     1     8     8
 0.0026322843     3     1     9     3
 -0.0048708194     3     1     9     6
 -0.0009110857     3     1     9     9
 -0.0066898723     3     1    10    10
 -0.1502752847     3     2     1     4
 -0.0041659150     3     2     2     1
 -0.5962044599     3     2     2     3
 0.1107939413     3     2     2     6
 -0.0332958159     3     2     2     9
 0.0001138369     3     2     4     1
 0.0037673219     3     2     4     3
 -0.0120210464     3     2     4     6
 -0.0016915545     3     2     4     9
 0.0109410851     3     2     5     7
 -0.0109796500     3     2     6     4
 0.0132559692     3     2     7     5
 0.0075191403     3     2     8    10
 -0.0025560781     3     2     9     4
 0.0113895765     3     2    10     8
 0.5961857210     3     3     1     1
 -0.0090939845     3     3     1     6
 -0.0026322843     3     3     1     9
 0.5962044599     3     3     2     2
 -0.0037673219     3     3     2     4
 -0.0037673219     3     3     4     2
 0.3151017996     3     3     4     4
 0.3528985895     3     3     5     5
 -0.0090939845     3     3     6     1
 0.3841494945     3     3     6     6
 0.0276871204     3     3     6     9
 0.3529120767     3     3     7     7
 0.3899886129     3     3     8     8
 -0.0026322843     3     3     9     1
 0.0276871204     3     3     9     6
 0.2100927943     3     3     9     9
 0.3294171684     3     3    10    10
 0.1502752847     3     4     1     2
 0.1503881092     3     4     2     1
 0.0037673219     3     4     2     3
 -0.0010303963     3     4     2     6
 0.0006194869     3     4     2     9
 0.0052640234     3     4     4     1
 -0.3151017996     3     4     4     3
 0.0891482411     3     4     4     6
 -0.0015751556     3     4     4     9
 -0.0554150089     3     4     5     7
 0.0109796500     3     4     6     2
 -0.0330811554     3     4     7     5
 -0.0424294905     3     4     8    10
 0.0025560781     3     4     9     2
 -0.0284232493     3     4    10     8
 -0.0023001442     3     5     2     7
 -0.0223181929     3     5     4     7
 0.0117641930     3     5     5     1
 -0.3528985895     3     5     5     3
 0.0558300544     3     5     5     6
 -0.0197080389     3     5     5     9
 -0.0132559692     3     5     7     2
 0.0330811554     3     5     7     4
 -0.1106026061     3     6     1     1
 0.0090939845     3     6     1     3
 0.0023073067     3     6     1     9
 -0.1107939413     3     6     2     2
 0.0010303963     3     6     2     4
 0.0120210464     3     6     4     2
 -0.0891482411     3     6     4     4
 -0.0558300544     3     6     5     5
 0.0177827801     3     6     6     1
 -0.3841494945     3     6     6     3
 -0.0200928357     3     6     6     9
 -0.0412816023     3     6     7     7
 -0.0562761613     3     6     8     8
 0.0048708194     3     6     9     1
 -0.0276871204     3     6     9     3
 -0.0069551908     3     6     9     9
 -0.0298790097     3     6    10    10
 0.0023001442     3     7     2     5
 0.0223181929     3     7     4     5
 -0.0109410851     3     7     5     2
 0.0554150089     3     7     5     4
 0.0087186375     3     7     7     1
 -0.3529120767     3     7     7     3
 0.0412816023     3     7     7     6
 -0.0148195002     3     7     7     9
 -0.0026646161     3     8     2    10
 -0.0137686470     3     8     4    10
 0.0137314582     3     8     8     1
 -0.3899886129     3     8     8     3
 0.0562761613     3     8     8     6
 -0.0151616058     3     8     8     9
 -0.0113895765     3     8    10     2
 0.0284232493     3     8    10     4
 0.0333405438     3     9     1     1
 0.0026322843     3     9     1     3
 -0.0023073067     3     9     1     6
 0.0332958159     3     9     2     2
 -0.0006194869     3     9     2     4
 0.0016915545     3     9     4     2
 0.0015751556     3     9     4     4
 0.0197080389     3     9     5     5
 0.0023064225     3     9     6     1
 -0.0276871204     3     9     6     3
 0.0200928357     3     9     6     6
 0.0148195002     3     9     7     7
 0.0151616058     3     9     8     8
 0.0009110857     3     9     9     1
 -0.2100927943     3     9     9     3
 0.0069551908     3     9     9     6
 0.0119435939     3     9    10    10
 0.0026646161     3    10     2     8
 0.0137686470     3    10     4     8
 -0.0075191403     3    10     8     2
 0.0424294905     3    10     8     4
 0.0066898723     3    10    10     1
 -0.3294171684     3    10    10     3
 0.0298790097     3    10    10     6
 -0.0119435939     3    10    10     9
 0.0050764374     4     1     1     2
 -0.4824073487     4     1     1     4
 -0.1502752847     4     1     2     3
 -0.1299414517     4     1     2     6
 -0.0418025024     4     1     2     9
 0.0001138369     4     1     3     2
 0.0052640234     4     1     3     4
 0.0080949841     4     1     5     7
 -0.0003341449     4     1     6     2
 -0.0027281925     4     1     6     4
 0.0060365528     4     1     7     5
 0.0054157920     4     1     8    10
 -0.0000673953     4     1     9     2
 0.0000825849     4     1     9     4
 0.0046993868     4     1    10     8
 -0.0050764374     4     2     1     1
 -0.1503881092     4     2     1     3
 -0.1296081861     4     2     1     6
 -0.0417460330     4     2     1     9
 -0.4823074857     4     2     2     4
 -0.0001138369     4     2     3     1
 -0.0037673219     4     2     3     3
 0.0120210464     4     2     3     6
 0.0016915545     4     2     3     9
 -0.0097840477     4     2     5     5
 0.0003341449     4     2     6     1
 0.0010303963     4     2     6     3
 -0.0162821634     4     2     6     6
 -0.0025870065     4     2     6     9
 -0.0094318740     4     2     7     7
 -0.0117805313     4     2     8     8
 0.0000673953     4     2     9     1
 -0.0006194869     4     2     9     3
 -0.0016275325     4     2     9     6
 -0.0006552574     4     2     9     9
 -0.0067127856     4     2    10    10
 0.1503881092     4     3     1     2
 0.0052640234     4     3     1     4
 0.1502752847     4     3     2     1
 0.0109796500     4     3     2     6
 0.0025560781     4     3     2     9
 0.0037673219     4     3     3     2
 -0.3151017996     4     3     3     4
 -0.0330811554     4     3     5     7
 -0.0010303963     4     3     6     2
 0.0891482411     4     3     6     4
 -0.0554150089     4     3     7     5
 -0.0284232493     4     3     8    10
 0.0006194869     4     3     9     2
 -0.0015751556     4     3     9     4
 -0.0424294905     4     3    10     8
 0.4824073487     4     4     1     1
 -0.0052640234     4     4     1     3
 0.0027281925     4     4     1     6
 -0.0000825849     4     4     1     9
 0.4823074857     4     4     2     2
 -0.0052640234     4     4     3     1
 0.3151017996     4     4     3     3
 -0.0891482411     4     4     3     6
 0.0015751556     4     4     3     9
 0.3253145171     4     4     5     5
 0.0027281925     4     4     6     1
 -0.0891482411     4     4     6     3
 0.2987639365     4     4     6     6
 0.0101356772     4     4     6     9
 0.2964343620     4     4     7     7
 0.3490329179     4     4     8     8
 -0.0000825849     4     4     9     1
 0.0015751556     4     4     9     3
 0.0101356772     4     4     9     6
 0.2023486451     4     4     9     9
 0.2956743412     4     4    10    10
 0.0020446311     4     5     1     7
 0.0223181929     4     5     3     7
 0.0097840477     4     5     5     2
 -0.3253145171     4     5     5     4
 -0.0005812809     4     5     6     7
 -0.0060365528     4     5     7     1
 0.0554150089     4     5     7     3
 0.0621595199     4     5     7     6
 0.0182556638     4     5     7     9
 -0.0044707341     4     5     9     7
 0.1296081861     4     6     1     2
 -0.0027281925     4     6     1     4
 0.1299414517     4     6     2     1
 -0.0109796500     4     6     2     3
 -0.0013140199     4     6     2     9
 -0.0120210464     4     6     3     2
 0.0891482411     4     6     3     4
 -0.0626448991     4     6     5     7
 0.0162821634     4     6     6     2
 -0.2987639365     4     6     6     4
 -0.0621595199     4     6     7     5
 -0.0536407827     4     6     8    10
 0.0016275325     4     6     9     2
 -0.0101356772     4     6     9     4
 -0.0459929784     4     6    10     8
 -0.0020446311     4     7     1     5
 -0.0223181929     4     7     3     5
 -0.0080949841     4     7     5     1
 0.0330811554     4     7     5     3
 0.0626448991     4     7     5     6
 0.0232576985     4     7     5     9
 0.0005812809     4     7     6     5
 0.0094318740     4     7     7     2
 -0.2964343620     4     7     7     4
 0.0044707341     4     7     9     5
 0.0015477475     4     8     1    10
 0.0137686470     4     8     3    10
 -0.0062357008     4     8     6    10
 0.0117805313     4     8     8     2
 -0.3490329179     4     8     8     4
 -0.0004157694     4     8     9    10
 -0.0046993868     4     8    10     1
 0.0424294905     4     8    10     3
 0.0459929784     4     8    10     6
 0.0123461427     4     8    10     9
 0.0417460330     4     9     1     2
 0.0000825849     4     9     1     4
 0.0418025024     4     9     2     1
 -0.0025560781     4     9     2     3
 0.0013140199     4     9     2     6
 -0.0016915545     4     9     3     2
 -0.0015751556     4     9     3     4
 -0.0232576985     4     9     5     7
 0.0025870065     4     9     6     2
 -0.0101356772     4     9     6     4
 -0.0182556638     4     9     7     5
 -0.0118532467     4     9     8    10
 0.0006552574     4     9     9     2
 -0.2023486451     4     9     9     4
 -0.0123461427     4     9    10     8
 0.0000000002     4     9    10    10
 -0.0015477475     4    10     1     8
 -0.0137686470     4    10     3     8
 0.0062357008     4    10     6     8
 -0.0054157920     4    10     8     1
 0.0284232493     4    10     8     3
 0.0536407827     4    10     8     6
 0.0118532467     4    10     8     9
 0.0004157694     4    10     9     8
 0.0067127856     4    10    10     2
 -0.2956743412     4    10    10     4
 -0.0000000002     4    10    10     9
 -0.4843011261     5     1     1     5
 0.1666349030     5     1     2     7
 0.0117641930     5     1     3     5
 -0.0080949841     5     1     4     7
 0.0036700609     5     1     6     5
 -0.0001998248     5     1     7     2
 -0.0020446311     5     1     7     4
 0.0018115226     5     1     9     5
 0.1668388542     5     2     1     7
 -0.4845521809     5     2     2     5
 -0.0109410851     5     2     3     7
 0.0097840477     5     2     4     5
 0.0033374694     5     2     6     7
 0.0001998248     5     2     7     1
 0.0023001442     5     2     7     3
 -0.0009631113     5     2     7     6
 -0.0003585647     5     2     7     9
 -0.0004739222     5     2     9     7
 0.0117641930     5     3     1     5
 -0.0132559692     5     3     2     7
 -0.3528985895     5     3     3     5
 0.0330811554     5     3     4     7
 0.0558300544     5     3     6     5
 -0.0023001442     5     3     7     2
 -0.0223181929     5     3     7     4
 -0.0197080389     5     3     9     5
 -0.0060365528     5     4     1     7
 0.0097840477     5     4     2     5
 0.0554150089     5     4     3     7
 -0.3253145171     5     4     4     5
 0.0621595199     5     4     6     7
 0.0020446311     5     4     7     1
 0.0223181929     5     4     7     3
 -0.0005812809     5     4     7     6
 -0.0044707341     5     4     7     9
 0.0182556638     5     4     9     7
 0.4843011261     5     5     1     1
 -0.0117641930     5     5     1     3
 -0.0036700609     5     5     1     6
 -0.0018115226     5     5     1     9
 0.4845521809     5     5     2     2
 -0.0097840477     5     5     2     4
 -0.0117641930     5     5     3     1
 0.3528985895     5     5     3     3
 -0.0558300544     5     5     3     6
 0.0197080389     5     5     3     9
 -0.0097840477     5     5     4     2
 0.3253145171     5     5     4     4
 -0.0036700609     5     5     6     1
 -0.0558300544     5     5     6     3
 0.3692610454     5     5     6     6
 0.0257763289     5     5     6     9
 0.2498168699     5     5     7     7
 0.3665671107     5     5     8     8
 -0.0018115226     5     5     9     1
 0.0197080389     5     5     9     3
 0.0257763289     5     5     9     6
 0.2083091283     5     5     9     9
 0.3073614555     5     5    10    10
 0.0036700609     5     6     1     5
 0.0042835551     5     6     2     7
 0.0558300544     5     6     3     5
 0.0626448991     5     6     4     7
 -0.3692610454     5     6     6     5
 0.0009631113     5     6     7     2
 0.0005812809     5     6     7     4
 -0.0257763289     5     6     9     5
 -0.1668388542     5     7     1     2
 0.0060365528     5     7     1     4
 -0.1666349030     5     7     2     1
 0.0132559692     5     7     2     3
 -0.0042835551     5     7     2     6
 0.0000804084     5     7     2     9
 0.0109410851     5     7     3     2
 -0.0554150089     5     7     3     4
 0.0080949841     5     7     4     1
 -0.0330811554     5     7     4     3
 -0.0626448991     5     7     4     6
 -0.0232576985     5     7     4     9
 -0.0033374694     5     7     6     2
 -0.0621595199     5     7     6     4
 -0.2498168699     5     7     7     5
 0.0599194147     5     7     8    10
 0.0004739222     5     7     9     2
 -0.0182556638     5     7     9     4
 0.0570550880     5     7    10     8
 0.0016281621     5     8     7    10
 -0.3665671107     5     8     8     5
 -0.0570550880     5     8    10     7
 0.0018115226     5     9     1     5
 -0.0000804084     5     9     2     7
 -0.0197080389     5     9     3     5
 0.0232576985     5     9     4     7
 -0.0257763289     5     9     6     5
 0.0003585647     5     9     7     2
 0.0044707341     5     9     7     4
 -0.2083091283     5     9     9     5
 -0.0016281621     5    10     7     8
 -0.0599194147     5    10     8     7
 -0.3073614555     5    10    10     5
 0.1106026061     6     1     1     3
 -0.5632097530     6     1     1     6
 -0.0464437489     6     1     1     9
 -0.0127516198     6     1     2     2
 -0.1296081861     6     1     2     4
 -0.0090939845     6     1     3     3
 0.0177827801     6     1     3     6
 0.0023064225     6     1     3     9
 0.0003341449     6     1     4     2
 0.0027281925     6     1     4     4
 -0.0036700609     6     1     5     5
 -0.0017396121     6     1     7     7
 -0.0040704727     6     1     8     8
 -0.0023073067     6     1     9     3
 0.0042792517     6     1     9     6
 0.0003886057     6     1     9     9
 -0.0009606777     6     1    10    10
 -0.1299414517     6     2     1     4
 0.0127516198     6     2     2     1
 0.1107939413     6     2     2     3
 -0.5640102588     6     2     2     6
 -0.0466051903     6     2     2     9
 0.0109796500     6     2     3     4
 -0.0003341449     6     2     4     1
 -0.0010303963     6     2     4     3
 0.0162821634     6     2     4     6
 0.0025870065     6     2     4     9
 -0.0033374694     6     2     5     7
 -0.0042835551     6     2     7     5
 -0.0021793065     6     2     8    10
 0.0013140199     6     2     9     4
 -0.0048633366     6     2    10     8
 -0.1106026061     6     3     1     1
 0.0177827801     6     3     1     6
 0.0048708194     6     3     1     9
 -0.1107939413     6     3     2     2
 0.0120210464     6     3     2     4
 0.0090939845     6     3     3     1
 -0.3841494945     6     3     3     6
 -0.0276871204     6     3     3     9
 0.0010303963     6     3     4     2
 -0.0891482411     6     3     4     4
 -0.0558300544     6     3     5     5
 -0.0412816023     6     3     7     7
 -0.0562761613     6     3     8     8
 0.0023073067     6     3     9     1
 -0.0200928357     6     3     9     6
 -0.0069551908     6     3     9     9
 -0.0298790097     6     3    10    10
 0.1299414517     6     4     1     2
 0.1296081861     6     4     2     1
 -0.0120210464     6     4     2     3
 0.0162821634     6     4     2     6
 0.0016275325     6     4     2     9
 -0.0109796500     6     4     3     2
 -0.0027281925     6     4     4     1
 0.0891482411     6     4     4     3
 -0.2987639365     6     4     4     6
 -0.0101356772     6     4     4     9
 -0.0621595199     6     4     5     7
 -0.0626448991     6     4     7     5
 -0.0459929784     6     4     8    10
 -0.0013140199     6     4     9     2
 -0.0536407827     6     4    10     8
 0.0009631113     6     5     2     7
 0.0005812809     6     5     4     7
 0.0036700609     6     5     5     1
 0.0558300544     6     5     5     3
 -0.3692610454     6     5     5     6
 -0.0257763289     6     5     5     9
 0.0042835551     6     5     7     2
 0.0626448991     6     5     7     4
 0.5632097530     6     6     1     1
 -0.0177827801     6     6     1     3
 -0.0042792517     6     6     1     9
 0.5640102588     6     6     2     2
 -0.0162821634     6     6     2     4
 -0.0177827801     6     6     3     1
 0.3841494945     6     6     3     3
 0.0200928357     6     6     3     9
 -0.0162821634     6     6     4     2
 0.2987639365     6     6     4     4
 0.3692610454     6     6     5     5
 0.3460655402     6     6     7     7
 0.3964724402     6     6     8     8
 -0.0042792517     6     6     9     1
 0.0200928357     6     6     9     3
 0.2044320254     6     6     9     9
 0.3250426097     6     6    10    10
 -0.0009631113     6     7     2     5
 -0.0005812809     6     7     4     5
 0.0033374694     6     7     5     2
 0.0621595199     6     7     5     4
 0.0017396121     6     7     7     1
 0.0412816023     6     7     7     3
 -0.3460655402     6     7     7     6
 -0.0240696234     6     7     7     9
 0.0020271982     6     8     2    10
 0.0062357008     6     8     4    10
 0.0040704727     6     8     8     1
 0.0562761613     6     8     8     3
 -0.3964724402     6     8     8     6
 -0.0252693978     6     8     8     9
 0.0048633366     6     8    10     2
 0.0536407827     6     8    10     4
 0.0464437489     6     9     1     1
 -0.0048708194     6     9     1     3
 0.0042792517     6     9     1     6
 0.0466051903     6     9     2     2
 -0.0016275325     6     9     2     4
 -0.0023064225     6     9     3     1
 0.0276871204     6     9     3     3
 -0.0200928357     6     9     3     6
 -0.0025870065     6     9     4     2
 0.0101356772     6     9     4     4
 0.0257763289     6     9     5     5
 0.0240696234     6     9     7     7
 0.0252693978     6     9     8     8
 -0.0003886057     6     9     9     1
 0.0069551908     6     9     9     3
 -0.2044320254     6     9     9     6
 0.0197108246     6     9    10    10
 -0.0020271982     6    10     2     8
 -0.0062357008     6    10     4     8
 0.0021793065     6    10     8     2
 0.0459929784     6    10     8     4
 0.0009606777     6    10    10     1
 0.0298790097     6    10    10     3
 -0.3250426097     6    10    10     6
 -0.0197108246     6    10    10     9
 -0.4496698066     7     1     1     7