&FCI NORB= 10,NELEC=  6,MS2=0,
 ORBSYM=1,1,1,1,1,1,1,1,1,1
 ISYM=1,
&END
 0.1368232882     1     1     2     2
 0.0156663368     1     1     2     4
 0.0100341726     1     1     2     6
 -0.0006147436     1     1     2     8
 -0.0055198847     1     1     2    10
 0.1752122686     1     1     3     3
 0.0336498774     1     1     3     5
 -0.0007444347     1     1     3     7
 0.0018281095     1     1     3     9
 0.0156663368     1     1     4     2
 0.1920620331     1     1     4     4
 -0.0393980055     1     1     4     6
 -0.0030646660     1     1     4     8
 -0.0088195626     1     1     4    10
 0.0336498774     1     1     5     3
 0.1883972935     1     1     5     5
 -0.0108922571     1     1     5     7
 -0.0208643707     1     1     5     9
 0.0100341726     1     1     6     2
 -0.0393980055     1     1     6     4
 0.2160900347     1     1     6     6
 0.0316417920     1     1     6     8
 -0.0291420679     1     1     6    10
 -0.0007444347     1     1     7     3
 -0.0108922571     1     1     7     5
 0.1876860188     1     1     7     7
 -0.0341772880     1     1     7     9
 -0.0006147436     1     1     8     2
 -0.0030646660     1     1     8     4
 0.0316417920     1     1     8     6
 0.1652320565     1     1     8     8
 0.0191193201     1     1     8    10
 0.0018281095     1     1     9     3
 -0.0208643707     1     1     9     5
 -0.0341772880     1     1     9     7
 0.1692696134     1     1     9     9
 -0.0055198847     1     1    10     2
 -0.0088195626     1     1    10     4
 -0.0291420679     1     1    10     6
 0.0191193201     1     1    10     8
 0.1827702026     1     1    10    10
 -0.1368232882     1     2     2     1
 0.0487432319     1     2     2     3
 0.0012075030     1     2     2     5
 -0.0040289202     1     2     2     7
 0.0053032286     1     2     2     9
 -0.0434559120     1     2     3     4
 0.0218597084     1     2     3     6
 0.0030352101     1     2     3     8
 0.0010879793     1     2     3    10
 -0.0156663368     1     2     4     1
 -0.0117795991     1     2     4     3
 0.0506507220     1     2     4     5
 -0.0067623402     1     2     4     7
 -0.0116563295     1     2     4     9
 0.0358918338     1     2     5     4
 0.0565860757     1     2     5     6
 0.0170581537     1     2     5     8
 -0.0167672710     1     2     5    10
 -0.0100341726     1     2     6     1
 0.0163289788     1     2     6     3
 0.0457220996     1     2     6     5
 0.0062239978     1     2     6     7
 0.0085327798     1     2     6     9
 -0.0046857446     1     2     7     4
 0.0057479181     1     2     7     6
 -0.0507301870     1     2     7     8
 -0.0166685778     1     2     7    10
 0.0006147436     1     2     8     1
 -0.0000600491     1     2     8     3
 0.0145729566     1     2     8     5
 -0.0499957934     1     2     8     7
 -0.0311961768     1     2     8     9
 -0.0120342567     1     2     9     4
 0.0050301953     1     2     9     6
 -0.0313997738     1     2     9     8
 0.0429129650     1     2     9    10
 0.0055198847     1     2    10     1
 -0.0051179735     1     2    10     3
 -0.0177986044     1     2    10     5
 -0.0159507847     1     2    10     7
 0.0411800478     1     2    10     9
 -0.0487432319     1     3     2     2
 -0.0316906452     1     3     2     4
 0.0054468823     1     3     2     6
 0.0031310724     1     3     2     8
 0.0062053751     1     3     2    10
 -0.1752122686     1     3     3     1
 -0.0318575492     1     3     3     5
 -0.0045825022     1     3     3     7
 0.0103927219     1     3     3     9
 0.0117795991     1     3     4     2
 -0.0112028053     1     3     4     4
 0.0367478984     1     3     4     6
 0.0102886612     1     3     4     8
 -0.0087475477     1     3     4    10
 -0.0336498774     1     3     5     1
 -0.0016126929     1     3     5     5
 0.0000470773     1     3     5     7
 0.0066908797     1     3     5     9
 -0.0163289788     1     3     6     2
 0.0154683978     1     3     6     4
 -0.0218551030     1     3     6     6
 -0.0125329557     1     3     6     8
 0.0125792570     1     3     6    10
 0.0007444347     1     3     7     1
 0.0016860329     1     3     7     5
 -0.0161725198     1     3     7     7
 0.0290235231     1     3     7     9
 0.0000600491     1     3     8     2
 0.0082760535     1     3     8     4
 -0.0122565668     1     3     8     6
 0.0069436393     1     3     8     8
 -0.0126913347     1     3     8    10
 -0.0018281095     1     3     9     1
 -0.0002638253     1     3     9     5
 0.0286700455     1     3     9     7
 -0.0037331627     1     3     9     9
 0.0051179735     1     3    10     2
 -0.0007523097     1     3    10     4
 0.0046146567     1     3    10     6
 -0.0136812188     1     3    10     8
 -0.0029036368     1     3    10    10
 -0.0156663368     1     4     2     1
 0.0316906452     1     4     2     3
 0.0152922117     1     4     2     5
 -0.0021585018     1     4     2     7
 0.0005444527     1     4     2     9
 0.0434559120     1     4     3     2
 0.0228152372     1     4     3     6
 0.0024791769     1     4     3     8
 -0.0090039607     1     4     3    10
 -0.1920620331     1     4     4     1
 0.0112028053     1     4     4     3
 0.0013125231     1     4     4     5
 -0.0138936757     1     4     4     7
 -0.0006640276     1     4     4     9
 -0.0358918338     1     4     5     2
 0.0109043739     1     4     5     6
 0.0122925584     1     4     5     8
 -0.0074190595     1     4     5    10
 0.0393980055     1     4     6     1
 -0.0154683978     1     4     6     3
 0.0098937133     1     4     6     5
 0.0019853871     1     4     6     7
 -0.0090865564     1     4     6     9
 0.0046857446     1     4     7     2
 -0.0010432724     1     4     7     6
 -0.0093609065     1     4     7     8
 -0.0167631338     1     4     7    10
 0.0030646660     1     4     8     1
 -0.0082760535     1     4     8     3
 0.0025396927     1     4     8     5
 -0.0083409722     1     4     8     7
 0.0062059764     1     4     8     9
 0.0120342567     1     4     9     2
 -0.0015542257     1     4     9     6
 0.0059404292     1     4     9     8
 0.0052775769     1     4     9    10
 0.0088195626     1     4    10     1
 0.0007523097     1     4    10     3
 -0.0058182252     1     4    10     5
 -0.0137379028     1     4    10     7
 0.0075605711     1     4    10     9
 -0.0012075030     1     5     2     2
 -0.0152922117     1     5     2     4
 0.0119788721     1     5     2     6
 0.0029786680     1     5     2     8
 0.0009390797     1     5     2    10
 -0.0336498774     1     5     3     1
 0.0318575492     1     5     3     3
 -0.0016483641     1     5     3     7
 0.0071496512     1     5     3     9
 -0.0506507220     1     5     4     2
 -0.0013125231     1     5     4     4
 0.0009651323     1     5     4     6
 0.0097478291     1     5     4     8
 -0.0015844697     1     5     4    10
 -0.1883972935     1     5     5     1
 0.0016126929     1     5     5     3
 -0.0138042175     1     5     5     7
 -0.0015273257     1     5     5     9
 -0.0457220996     1     5     6     2
 -0.0098937133     1     5     6     4
 0.0060364849     1     5     6     6
 0.0087247347     1     5     6     8
 -0.0027093385     1     5     6    10
 0.0108922571     1     5     7     1
 -0.0016860329     1     5     7     3
 0.0055213682     1     5     7     7
 -0.0028965231     1     5     7     9
 -0.0145729566     1     5     8     2
 -0.0025396927     1     5     8     4
 0.0009406683     1     5     8     6
 0.0051472976     1     5     8     8
 0.0078027900     1     5     8    10
 0.0208643707     1     5     9     1
 0.0002638253     1     5     9     3
 0.0006294414     1     5     9     7
 -0.0010646222     1     5     9     9
 0.0177986044     1     5    10     2
 0.0058182252     1     5    10     4
 -0.0048171887     1     5    10     6
 0.0027742542     1     5    10     8
 0.0061107359     1     5    10    10
 -0.0100341726     1     6     2     1
 -0.0054468823     1     6     2     3
 -0.0119788721     1     6     2     5
 0.0006572066     1     6     2     7
 0.0036680776     1     6     2     9
 -0.0218597084     1     6     3     2
 -0.0228152372     1     6     3     4
 -0.0002039613     1     6     3     8
 0.0087808271     1     6     3    10
 0.0393980055     1     6     4     1
 -0.0367478984     1     6     4     3
 -0.0009651323     1     6     4     5
 0.0030431148     1     6     4     7
 -0.0076861415     1     6     4     9
 -0.0565860757     1     6     5     2
 -0.0109043739     1     6     5     4
 0.0078156381     1     6     5     8
 0.0021556573     1     6     5    10
 -0.2160900347     1     6     6     1
 0.0218551030     1     6     6     3
 -0.0060364849     1     6     6     5
 -0.0153189244     1     6     6     7
 0.0055972438     1     6     6     9
 -0.0057479181     1     6     7     2
 0.0010432724     1     6     7     4
 0.0022262793     1     6     7     8
 0.0013773573     1     6     7    10
 -0.0316417920     1     6     8     1
 0.0122565668     1     6     8     3
 -0.0009406683     1     6     8     5
 -0.0023245008     1     6     8     7
 0.0013629343     1     6     8     9
 -0.0050301953     1     6     9     2
 0.0015542257     1     6     9     4
 -0.0009642389     1     6     9     8
 -0.0037623009     1     6     9    10
 0.0291420679     1     6    10     1
 -0.0046146567     1     6    10     3
 0.0048171887     1     6    10     5
 0.0047977392     1     6    10     7
 -0.0057857679     1     6    10     9
 0.0040289202     1     7     2     2
 0.0021585018     1     7     2     4
 -0.0006572066     1     7     2     6
 -0.0008227968     1     7     2     8
 -0.0007198733     1     7     2    10
 0.0007444347     1     7     3     1
 0.0045825022     1     7     3     3
 0.0016483641     1     7     3     5
 0.0003361618     1     7     3     9
 0.0067623402     1     7     4     2
 0.0138936757     1     7     4     4
 -0.0030431148     1     7     4     6
 -0.0010196221     1     7     4     8
 -0.0029581800     1     7     4    10
 0.0108922571     1     7     5     1
 -0.0000470773     1     7     5     3
 0.0138042175     1     7     5     5
 -0.0035102134     1     7     5     9
 -0.0062239978     1     7     6     2
 -0.0019853871     1     7     6     4
 0.0153189244     1     7     6     6
 0.0045430138     1     7     6     8
 -0.0034588252     1     7     6    10
 -0.1876860188     1     7     7     1
 0.0161725198     1     7     7     3
 -0.0055213682     1     7     7     5
 0.0020469119     1     7     7     9
 0.0499957934     1     7     8     2
 0.0083409722     1     7     8     4
 0.0023245008     1     7     8     6
 0.0028809685     1     7     8     8
 -0.0024909170     1     7     8    10
 0.0341772880     1     7     9     1
 -0.0286700455     1     7     9     3
 -0.0006294414     1     7     9     5
 0.0035504198     1     7     9     9
 0.0159507847     1     7    10     2
 0.0137379028     1     7    10     4
 -0.0047977392     1     7    10     6
 -0.0012481027     1     7    10     8
 0.0051946309     1     7    10    10
 0.0006147436     1     8     2     1
 -0.0031310724     1     8     2     3
 -0.0029786680     1     8     2     5
 0.0008227968     1     8     2     7
 0.0002904400     1     8     2     9
 -0.0030352101     1     8     3     2
 -0.0024791769     1     8     3     4
 0.0002039613     1     8     3     6
 0.0012998756     1     8     3    10
 0.0030646660     1     8     4     1
 -0.0102886612     1     8     4     3
 -0.0097478291     1     8     4     5
 0.0010196221     1     8     4     7
 0.0002129594     1     8     4     9
 -0.0170581537     1     8     5     2
 -0.0122925584     1     8     5     4
 -0.0078156381     1     8     5     6
 0.0050223303     1     8     5    10
 -0.0316417920     1     8     6     1
 0.0125329557     1     8     6     3
 -0.0087247347     1     8     6     5
 -0.0045430138     1     8     6     7
 0.0023194218     1     8     6     9
 0.0507301870     1     8     7     2
 0.0093609065     1     8     7     4
 -0.0022262793     1     8     7     6
 -0.0012287597     1     8     7    10
 -0.1652320565     1     8     8     1
 -0.0069436393     1     8     8     3
 -0.0051472976     1     8     8     5
 -0.0028809685     1     8     8     7
 0.0037113203     1     8     8     9
 0.0000000001     1     8     8    10
 0.0313997738     1     8     9     2
 -0.0059404292     1     8     9     4
 0.0009642389     1     8     9     6
 -0.0039824515     1     8     9    10
 -0.0191193201     1     8    10     1
 0.0136812188     1     8    10     3
 -0.0027742542     1     8    10     5
 0.0012481027     1     8    10     7
 -0.0021924872     1     8    10     9
 -0.0053032286     1     9     2     2
 -0.0005444527     1     9     2     4
 -0.0036680776     1     9     2     6
 -0.0002904400     1     9     2     8
 0.0018174393     1     9     2    10
 -0.0018281095     1     9     3     1
 -0.0103927219     1     9     3     3
 -0.0071496512     1     9     3     5
 -0.0003361618     1     9     3     7
 0.0116563295     1     9     4     2
 0.0006640276     1     9     4     4
 0.0076861415     1     9     4     6
 -0.0002129594     1     9     4     8
 -0.0023377090     1     9     4    10
 0.0208643707     1     9     5     1
 -0.0066908797     1     9     5     3
 0.0015273257     1     9     5     5
 0.0035102134     1     9     5     7
 -0.0085327798     1     9     6     2
 0.0090865564     1     9     6     4
 -0.0055972438     1     9     6     6
 -0.0023194218     1     9     6     8
 0.0020648909     1     9     6    10
 0.0341772880     1     9     7     1
 -0.0290235231     1     9     7     3
 0.0028965231     1     9     7     5
 -0.0020469119     1     9     7     7
 0.0311961768     1     9     8     2
 -0.0062059764     1     9     8     4
 -0.0013629343     1     9     8     6
 -0.0037113203     1     9     8     8
 -0.0017878209     1     9     8    10
 -0.1692696134     1     9     9     1
 0.0037331627     1     9     9     3
 0.0010646222     1     9     9     5
 -0.0035504198     1     9     9     7
 -0.0411800478     1     9    10     2
 -0.0075605711     1     9    10     4
 0.0057857679     1     9    10     6
 0.0021924872     1     9    10     8
 -0.0016066419     1     9    10    10
 0.0055198847     1    10     2     1
 -0.0062053751     1    10     2     3
 -0.0009390797     1    10     2     5
 0.0007198733     1    10     2     7
 -0.0018174393     1    10     2     9
 -0.0010879793     1    10     3     2
 0.0090039607     1    10     3     4
 -0.0087808271     1    10     3     6
 -0.0012998756     1    10     3     8
 0.0088195626     1    10     4     1
 0.0087475477     1    10     4     3
 0.0015844697     1    10     4     5
 0.0029581800     1    10     4     7
 0.0023377090     1    10     4     9
 0.0167672710     1    10     5     2
 0.0074190595     1    10     5     4
 -0.0021556573     1    10     5     6
 -0.0050223303     1    10     5     8
 0.0291420679     1    10     6     1
 -0.0125792570     1    10     6     3
 0.0027093385     1    10     6     5
 0.0034588252     1    10     6     7
 -0.0020648909     1    10     6     9
 0.0166685778     1    10     7     2
 0.0167631338     1    10     7     4
 -0.0013773573     1    10     7     6
 0.0012287597     1    10     7     8
 -0.0191193201     1    10     8     1
 0.0126913347     1    10     8     3
 -0.0078027900     1    10     8     5
 0.0024909170     1    10     8     7
 -0.0000000001     1    10     8     8
 0.0017878209     1    10     8     9
 -0.0429129650     1    10     9     2
 -0.0052775769     1    10     9     4
 0.0037623009     1    10     9     6
 0.0039824515     1    10     9     8
 -0.1827702026     1    10    10     1
 0.0029036368     1    10    10     3
 -0.0061107359     1    10    10     5
 -0.0051946309     1    10    10     7
 0.0016066419     1    10    10     9
 -0.1368232882     2     1     1     2
 -0.0156663368     2     1     1     4
 -0.0100341726     2     1     1     6
 0.0006147436     2     1     1     8
 0.0055198847     2     1     1    10
 0.0487432319     2     1     3     2
 -0.0117795991     2     1     3     4
 0.0163289788     2     1     3     6
 -0.0000600491     2     1     3     8
 -0.0051179735     2     1     3    10
 -0.0434559120     2     1     4     3
 0.0358918338     2     1     4     5
 -0.0046857446     2     1     4     7
 -0.0120342567     2     1     4     9
 0.0012075030     2     1     5     2
 0.0506507220     2     1     5     4
 0.0457220996     2     1     5     6
 0.0145729566     2     1     5     8
 -0.0177986044     2     1     5    10
 0.0218597084     2     1     6     3
 0.0565860757     2     1     6     5
 0.0057479181     2     1     6     7
 0.0050301953     2     1     6     9
 -0.0040289202     2     1     7     2
 -0.0067623402     2     1     7     4
 0.0062239978     2     1     7     6
 -0.0499957934     2     1     7     8
 -0.0159507847     2     1     7    10
 0.0030352101     2     1     8     3
 0.0170581537     2     1     8     5
 -0.0507301870     2     1     8     7
 -0.0313997738     2     1     8     9
 0.0053032286     2     1     9     2
 -0.0116563295     2     1     9     4
 0.0085327798     2     1     9     6
 -0.0311961768     2     1     9     8
 0.0411800478     2     1     9    10
 0.0010879793     2     1    10     3
 -0.0167672710     2     1    10     5
 -0.0166685778     2     1    10     7
 0.0429129650     2     1    10     9
 0.1368232882     2     2     1     1
 -0.0487432319     2     2     1     3
 -0.0012075030     2     2     1     5
 0.0040289202     2     2     1     7
 -0.0053032286     2     2     1     9
 -0.0487432319     2     2     3     1
 0.1422965104     2     2     3     3
 0.0088145208     2     2     3     5
 -0.0024985291     2     2     3     7
 0.0065375835     2     2     3     9
 0.1740618072     2     2     4     4
 -0.0080732000     2     2     4     6
 0.0065271401     2     2     4     8
 -0.0147084612     2     2     4    10
 -0.0012075030     2     2     5     1
 0.0088145208     2     2     5     3
 0.1826477199     2     2     5     5
 -0.0079385562     2     2     5     7
 -0.0174258285     2     2     5     9
 -0.0080732000     2     2     6     4
 0.1870300375     2     2     6     6
 0.0167937477     2     2     6     8
 -0.0181760284     2     2     6    10
 0.0040289202     2     2     7     1
 -0.0024985291     2     2     7     3
 -0.0079385562     2     2     7     5
 0.1703836318     2     2     7     7
 -0.0036722825     2     2     7     9
 0.0065271401     2     2     8     4
 0.0167937477     2     2     8     6
 0.1720550695     2     2     8     8
 0.0049176713     2     2     8    10
 -0.0053032286     2     2     9     1
 0.0065375835     2     2     9     3
 -0.0174258285     2     2     9     5
 -0.0036722825     2     2     9     7
 0.1656539898     2     2     9     9
 -0.0147084612     2     2    10     4
 -0.0181760284     2     2    10     6
 0.0049176713     2     2    10     8
 0.1786946966     2     2    10    10
 0.0487432319     2     3     1     2
 0.0316906452     2     3     1     4
 -0.0054468823     2     3     1     6
 -0.0031310724     2     3     1     8
 -0.0062053751     2     3     1    10
 -0.1422965104     2     3     3     2
 -0.0561575383     2     3     3     4
 0.0036800251     2     3     3     6
 0.0027802883     2     3     3     8
 0.0092654994     2     3     3    10
 0.0434559120     2     3     4     1
 0.0562137380     2     3     4     5
 -0.0000406288     2     3     4     7
 -0.0116476165     2     3     4     9
 -0.0088145208     2     3     5     2
 0.0300209352     2     3     5     4
 0.0499724871     2     3     5     6
 0.0110789303     2     3     5     8
 -0.0103932123     2     3     5    10
 -0.0218597084     2     3     6     1
 0.0323778431     2     3     6     5
 0.0071378201     2     3     6     7
 0.0139535523     2     3     6     9
 0.0024985291     2     3     7     2
 0.0006245384     2     3     7     4
 0.0063495664     2     3     7     6
 -0.0482178622     2     3     7     8
 -0.0071614030     2     3     7    10
 -0.0030352101     2     3     8     1
 0.0084403755     2     3     8     5
 -0.0473550864     2     3     8     7
 -0.0377325335     2     3     8     9
 -0.0065375835     2     3     9     2
 -0.0117160008     2     3     9     4
 0.0074161951     2     3     9     6
 -0.0382891068     2     3     9     8
 0.0416674183     2     3     9    10
 -0.0010879793     2     3    10     1
 -0.0121257913     2     3    10     5
 -0.0067793412     2     3    10     7
 0.0389808841     2     3    10     9
 0.0156663368     2     4     1     1
 -0.0316906452     2     4     1     3
 -0.0152922117     2     4     1     5
 0.0021585018     2     4     1     7
 -0.0005444527     2     4     1     9
 0.0117795991     2     4     3     1
 0.0561575383     2     4     3     3
 0.0273029751     2     4     3     5
 -0.0007889354     2     4     3     7
 0.0000596838     2     4     3     9
 -0.1740618072     2     4     4     2
 -0.0371153290     2     4     4     6
 0.0022707004     2     4     4     8
 0.0096138672     2     4     4    10
 -0.0506507220     2     4     5     1
 -0.0300209352     2     4     5     3
 0.0040006699     2     4     5     5
 -0.0120992613     2     4     5     7
 -0.0106409957     2     4     5     9
 0.0080732000     2     4     6     2
 0.0206414529     2     4     6     6
 0.0162471540     2     4     6     8
 -0.0174842228     2     4     6    10
 0.0067623402     2     4     7     1
 -0.0006245384     2     4     7     3
 -0.0039194595     2     4     7     5
 0.0178759676     2     4     7     7
 -0.0240197642     2     4     7     9
 -0.0065271401     2     4     8     2
 0.0094954995     2     4     8     6
 -0.0003789770     2     4     8     8
 0.0154437507     2     4     8    10
 0.0116563295     2     4     9     1
 0.0117160008     2     4     9     3
 0.0015023784     2     4     9     5
 -0.0215094089     2     4     9     7
 0.0028627356     2     4     9     9
 0.0147084612     2     4    10     2
 -0.0053434348     2     4    10     6
 0.0136304334     2     4    10     8
 0.0093187523     2     4    10    10
 0.0012075030     2     5     1     2
 0.0152922117     2     5     1     4
 -0.0119788721     2     5     1     6
 -0.0029786680     2     5     1     8
 -0.0009390797     2     5     1    10
 -0.0088145208     2     5     3     2
 -0.0273029751     2     5     3     4
 0.0179367587     2     5     3     6
 0.0027623960     2     5     3     8
 0.0022666037     2     5     3    10
 -0.0358918338     2     5     4     1
 -0.0562137380     2     5     4     3
 -0.0080656167     2     5     4     7
 -0.0124083579     2     5     4     9
 -0.1826477199     2     5     5     2
 -0.0040006699     2     5     5     4
 -0.0070722910     2     5     5     6
 0.0177450358     2     5     5     8
 -0.0041840480     2     5     5    10
 -0.0565860757     2     5     6     1
 -0.0323778431     2     5     6     3
 -0.0115522566     2     5     6     7
 -0.0090193905     2     5     6     9
 0.0079385562     2     5     7     2
 0.0039194595     2     5     7     4
 -0.0029531713     2     5     7     6
 -0.0033348225     2     5     7     8
 -0.0152762604     2     5     7    10
 -0.0170581537     2     5     8     1
 -0.0084403755     2     5     8     3
 -0.0055652881     2     5     8     7
 0.0101058995     2     5     8     9
 0.0174258285     2     5     9     2
 -0.0015023784     2     5     9     4
 0.0009263451     2     5     9     6
 0.0091111858     2     5     9     8
 -0.0018643377     2     5     9    10
 0.0167672710     2     5    10     1
 0.0121257913     2     5    10     3
 -0.0099058918     2     5    10     7
 0.0013356031     2     5    10     9
 0.0100341726     2     6     1     1
 0.0054468823     2     6     1     3
 0.0119788721     2     6     1     5
 -0.0006572066     2     6     1     7
 -0.0036680776     2     6     1     9
 -0.0163289788     2     6     3     1
 -0.0036800251     2     6     3     3
 -0.0179367587     2     6     3     5
 0.0007326262     2     6     3     7
 0.0066247904     2     6     3     9
 0.0080732000     2     6     4     2
 0.0371153290     2     6     4     4
 0.0067869522     2     6     4     8
 -0.0121676814     2     6     4    10
 -0.0457220996     2     6     5     1
 -0.0499724871     2     6     5     3
 0.0070722910     2     6     5     5
 -0.0085501327     2     6     5     7
 -0.0100052935     2     6     5     9
 -0.1870300375     2     6     6     2
 -0.0206414529     2     6     6     4
 0.0122388444     2     6     6     8
 0.0030998840     2     6     6    10
 -0.0062239978     2     6     7     1
 -0.0063495664     2     6     7     3
 0.0029531713     2     6     7     5
 0.0044106605     2     6     7     7
 -0.0014305353     2     6     7     9
 -0.0167937477     2     6     8     2
 -0.0094954995     2     6     8     4
 0.0070439924     2     6     8     8
 0.0076447072     2     6     8    10
 -0.0085327798     2     6     9     1
 -0.0074161951     2     6     9     3
 -0.0009263451     2     6     9     5
 -0.0002179748     2     6     9     7
 0.0018037666     2     6     9     9
 0.0181760284     2     6    10     2
 0.0053434348     2     6    10     4
 0.0031810900     2     6    10     8
 0.0066810348     2     6    10    10
 -0.0040289202     2     7     1     2
 -0.0021585018     2     7     1     4
 0.0006572066     2     7     1     6
 0.0008227968     2     7     1     8
 0.0007198733     2     7     1    10
 0.0024985291     2     7     3     2
 0.0007889354     2     7     3     4
 -0.0007326262     2     7     3     6
 -0.0008445114     2     7     3     8
 -0.0005268500     2     7     3    10
 0.0046857446     2     7     4     1
 0.0000406288     2     7     4     3
 0.0080656167     2     7     4     5
 -0.0024352202     2     7     4     9
 0.0079385562     2     7     5     2
 0.0120992613     2     7     5     4
 0.0085501327     2     7     5     6
 0.0022233640     2     7     5     8
 -0.0053800197     2     7     5    10
 -0.0057479181     2     7     6     1
 -0.0071378201     2     7     6     3
 0.0115522566     2     7     6     5
 -0.0012175550     2     7     6     9
 -0.1703836318     2     7     7     2
 -0.0178759676     2     7     7     4
 -0.0044106605     2     7     7     6
 0.0000396614     2     7     7     8
 0.0042037296     2     7     7    10
 0.0507301870     2     7     8     1
 0.0473550864     2     7     8     3
 0.0055652881     2     7     8     5
 -0.0018448353     2     7     8     9
 -0.0000000001     2     7     8    10
 0.0036722825     2     7     9     2
 0.0215094089     2     7     9     4
 0.0002179748     2     7     9     6
 -0.0014649802     2     7     9     8
 0.0009385512     2     7     9    10
 0.0166685778     2     7    10     1
 0.0067793412     2     7    10     3
 0.0099058918     2     7    10     5
 0.0018307256     2     7    10     9
 -0.0006147436     2     8     1     1
 0.0031310724     2     8     1     3
 0.0029786680     2     8     1     5
 -0.0008227968     2     8     1     7
 -0.0002904400     2     8     1     9
 0.0000600491     2     8     3     1
 -0.0027802883     2     8     3     3
 -0.0027623960     2     8     3     5
 0.0008445114     2     8     3     7
 0.0006092136     2     8     3     9
 -0.0065271401     2     8     4     2
 -0.0022707004     2     8     4     4
 -0.0067869522     2     8     4     6
 0.0017857512     2     8     4    10
 -0.0145729566     2     8     5     1
 -0.0110789303     2     8     5     3
 -0.0177450358     2     8     5     5
 -0.0022233640     2     8     5     7
 0.0010015479     2     8     5     9
 -0.0167937477     2     8     6     2
 -0.0162471540     2     8     6     4
 -0.0122388444     2     8     6     6
 0.0044524143     2     8     6    10
 0.0499957934     2     8     7     1
 0.0482178622     2     8     7     3
 0.0033348225     2     8     7     5
 -0.0000396614     2     8     7     7
 -0.0003860566     2     8     7     9
 -0.0000000001     2     8     7    10
 -0.1720550695     2     8     8     2
 0.0003789770     2     8     8     4
 -0.0070439924     2     8     8     6
 0.0054756722     2     8     8    10
 0.0311961768     2     8     9     1
 0.0382891068     2     8     9     3
 -0.0091111858     2     8     9     5
 0.0014649802     2     8     9     7
 -0.0016444691     2     8     9     9
 -0.0049176713     2     8    10     2
 -0.0136304334     2     8    10     4
 -0.0031810900     2     8    10     6
 -0.0031456836     2     8    10    10
 0.0053032286     2     9     1     2
 0.0005444527     2     9     1     4
 0.0036680776     2     9     1     6
 0.0002904400     2     9     1     8
 -0.0018174393     2     9     1    10
 -0.0065375835     2     9     3     2
 -0.0000596838     2     9     3     4
 -0.0066247904     2     9     3     6
 -0.0006092136     2     9     3     8
 0.0025764580     2     9     3    10
 0.0120342567     2     9     4     1
 0.0116476165     2     9     4     3
 0.0124083579     2     9     4     5
 0.0024352202     2     9     4     7
 0.0174258285     2     9     5     2
 0.0106409957     2     9     5     4
 0.0100052935     2     9     5     6
 -0.0010015479     2     9     5     8
 -0.0031767818     2     9     5    10
 -0.0050301953     2     9     6     1
 -0.0139535523     2     9     6     3
 0.0090193905     2     9     6     5
 0.0012175550     2     9     6     7
 0.0036722825     2     9     7     2
 0.0240197642     2     9     7     4
 0.0014305353     2     9     7     6
 0.0003860566     2     9     7     8
 -0.0009058539     2     9     7    10
 0.0313997738     2     9     8     1
 0.0377325335     2     9     8     3
 -0.0101058995     2     9     8     5
 0.0018448353     2     9     8     7
 -0.1656539898     2     9     9     2
 -0.0028627356     2     9     9     4
 -0.0018037666     2     9     9     6