&FCI NORB= 15,NELEC= 16,MS2=0,
 ORBSYM=1,1,1,1,1,1,1,1,1,1,1,1,1,1,1
 ISYM=1,
&END
 0.3951869788     1     1     2     2
 -0.0051563319     1     1     2     4
 0.0013791198     1     1     2    11
 -0.0013124542     1     1     2    15
 0.5961660807     1     1     3     3
 -0.1108204970     1     1     3     6
 0.0343288592     1     1     3     9
 -0.0160635753     1     1     3    14
 -0.0051563319     1     1     4     2
 0.4825079392     1     1     4     4
 -0.0589960202     1     1     4    11
 0.0014205923     1     1     4    15
 0.4840958382     1     1     5     5
 0.0702202858     1     1     5    12
 -0.1108204970     1     1     6     3
 0.5636194094     1     1     6     6
 0.0481772275     1     1     6     9
 0.0525670253     1     1     6    14
 0.4498223125     1     1     7     7
 -0.0565888392     1     1     7    13
 0.5353703167     1     1     8     8
 0.0343288592     1     1     9     3
 0.0481772275     1     1     9     6
 0.2242286633     1     1     9     9
 -0.0089043022     1     1     9    14
 0.4010895496     1     1    10    10
 0.0013791198     1     1    11     2
 -0.0589960202     1     1    11     4
 0.2051008541     1     1    11    11
 0.0030217026     1     1    11    15
 0.0702202858     1     1    12     5
 0.2202388218     1     1    12    12
 -0.0565888392     1     1    13     7
 0.1890960998     1     1    13    13
 -0.0160635753     1     1    14     3
 0.0525670253     1     1    14     6
 -0.0089043022     1     1    14     9
 0.2410027958     1     1    14    14
 -0.0013124542     1     1    15     2
 0.0014205923     1     1    15     4
 0.0030217026     1     1    15    11
 0.2112953003     1     1    15    15
 -0.3951869788     1     2     2     1
 -0.0042217545     1     2     2     3
 0.0129535971     1     2     2     6
 0.0025860821     1     2     2     9
 0.0026946975     1     2     2    14
 0.1502242057     1     2     3     4
 -0.0339313496     1     2     3    11
 -0.0065162841     1     2     3    15
 0.0051563319     1     2     4     1
 0.1503387466     1     2     4     3
 0.1293587350     1     2     4     6
 0.0419571303     1     2     4     9
 0.0074086827     1     2     4    14
 -0.1661539793     1     2     5     7
 0.0330396142     1     2     5    13
 0.1297027967     1     2     6     4
 -0.0103700048     1     2     6    11
 0.0206952728     1     2     6    15
 -0.1659457988     1     2     7     5
 -0.0274559718     1     2     7    12
 0.1134258148     1     2     8    10
 0.0420162526     1     2     9     4
 -0.0373535313     1     2     9    11
 0.0133322822     1     2     9    15
 0.1131727439     1     2    10     8
 -0.0013791198     1     2    11     1
 -0.0339471690     1     2    11     3
 -0.0102785560     1     2    11     6
 -0.0373347345     1     2    11     9
 -0.0238189994     1     2    11    14
 -0.0275406094     1     2    12     7
 0.0372731510     1     2    12    13
 0.0329555086     1     2    13     5
 0.0372390717     1     2    13    12
 0.0074772459     1     2    14     4
 -0.0238383374     1     2    14    11
 -0.0307436457     1     2    14    15
 0.0013124542     1     2    15     1
 -0.0064889555     1     2    15     3
 0.0206128802     1     2    15     6
 0.0133160850     1     2    15     9
 -0.0307617636     1     2    15    14
 0.0042217545     1     3     2     2
 -0.0001149066     1     3     2     4
 0.0000259944     1     3     2    11
 -0.0000278363     1     3     2    15
 -0.5961660807     1     3     3     1
 0.0091998198     1     3     3     6
 0.0026558692     1     3     3     9
 0.0020243458     1     3     3    14
 -0.1503387466     1     3     4     2
 -0.0052332999     1     3     4     4
 0.0011315298     1     3     4    11
 -0.0012637003     1     3     4    15
 -0.0116993952     1     3     5     5
 -0.0046005433     1     3     5    12
 0.1108204970     1     3     6     1
 -0.0177822415     1     3     6     6
 -0.0049445027     1     3     6     9
 -0.0031214008     1     3     6    14
 -0.0086545585     1     3     7     7
 0.0028612193     1     3     7    13
 -0.0134911641     1     3     8     8
 -0.0343288592     1     3     9     1
 -0.0023874071     1     3     9     6
 -0.0009230377     1     3     9     9
 -0.0006633815     1     3     9    14
 -0.0068864895     1     3    10    10
 0.0339471690     1     3    11     2
 0.0008031302     1     3    11     4
 -0.0005703395     1     3    11    11
 0.0001356724     1     3    11    15
 -0.0030936896     1     3    12     5
 -0.0017103066     1     3    12    12
 0.0021552432     1     3    13     7
 -0.0010865335     1     3    13    13
 -0.0000000001     1     3    13    15
 0.0160635753     1     3    14     1
 -0.0022379708     1     3    14     6
 -0.0010001219     1     3    14     9
 -0.0007491105     1     3    14    14
 0.0064889555     1     3    15     2
 -0.0009135823     1     3    15     4
 0.0001628562     1     3    15    11
 -0.0000000001     1     3    15    13
 -0.0003923708     1     3    15    15
 0.0051563319     1     4     2     1
 0.0001149066     1     4     2     3
 -0.0003440851     1     4     2     6
 -0.0000698416     1     4     2     9
 -0.0000736779     1     4     2    14
 -0.1502242057     1     4     3     2
 0.0002018047     1     4     3    11
 -0.0002591755     1     4     3    15
 -0.4825079392     1     4     4     1
 0.0052332999     1     4     4     3
 -0.0026670323     1     4     4     6
 0.0001179837     1     4     4     9
 -0.0011293756     1     4     4    14
 0.0059662120     1     4     5     7
 -0.0025330308     1     4     5    13
 -0.1297027967     1     4     6     2
 0.0001525206     1     4     6    11
 -0.0011739432     1     4     6    15
 0.0080431519     1     4     7     5
 0.0041488912     1     4     7    12
 -0.0046842754     1     4     8    10
 -0.0420162526     1     4     9     2
 -0.0004262262     1     4     9    11
 -0.0001604119     1     4     9    15
 -0.0056435461     1     4    10     8
 0.0589960202     1     4    11     1
 -0.0008031302     1     4    11     3
 0.0005358080     1     4    11     6
 -0.0004944094     1     4    11     9
 -0.0004022283     1     4    11    14
 0.0019242699     1     4    12     7
 -0.0003361226     1     4    12    13
 -0.0019273198     1     4    13     5
 -0.0005936029     1     4    13    12
 -0.0074772459     1     4    14     2
 -0.0006446819     1     4    14    11
 -0.0010050568     1     4    14    15
 -0.0014205923     1     4    15     1
 0.0009135823     1     4    15     3
 -0.0012159191     1     4    15     6
 -0.0000435985     1     4    15     9
 -0.0012241672     1     4    15    14
 -0.0002048014     1     5     2     7
 0.0000785183     1     5     2    13
 -0.0011689168     1     5     3    12
 -0.0020676436     1     5     4     7
 -0.0004235977     1     5     4    13
 -0.4840958382     1     5     5     1
 0.0116993952     1     5     5     3
 0.0037414167     1     5     5     6
 0.0018180687     1     5     5     9
 0.0018365551     1     5     5    14
 -0.0014525882     1     5     6    12
 0.1659457988     1     5     7     2
 -0.0080431519     1     5     7     4
 0.0015808137     1     5     7    11
 0.0021003616     1     5     7    15
 0.0016118104     1     5     9    12
 -0.0000016403     1     5    11     7
 -0.0011627332     1     5    11    13
 -0.0702202858     1     5    12     1
 0.0030936896     1     5    12     3
 0.0004676870     1     5    12     6
 0.0024492118     1     5    12     9
 0.0002577917     1     5    12    14
 -0.0329555086     1     5    13     2
 0.0019273198     1     5    13     4
 -0.0018403135     1     5    13    11
 0.0002439994     1     5    13    15
 -0.0006395619     1     5    14    12
 0.0004496270     1     5    15     7
 0.0006796244     1     5    15    13
 -0.0129535971     1     6     2     2
 0.0003440851     1     6     2     4
 -0.0000934686     1     6     2    11
 0.0000845218     1     6     2    15
 0.1108204970     1     6     3     1
 -0.0091998198     1     6     3     3
 -0.0023293558     1     6     3     9
 -0.0006347171     1     6     3    14
 -0.1293587350     1     6     4     2
 0.0026670323     1     6     4     4
 -0.0003941449     1     6     4    11
 0.0001479967     1     6     4    15
 -0.0037414167     1     6     5     5
 -0.0019964388     1     6     5    12
 -0.5636194094     1     6     6     1
 0.0177822415     1     6     6     3
 0.0043503790     1     6     6     9
 -0.0013523084     1     6     6    14
 -0.0017875130     1     6     7     7
 0.0010313258     1     6     7    13
 -0.0042554207     1     6     8     8
 -0.0481772275     1     6     9     1
 0.0023874071     1     6     9     3
 0.0004119991     1     6     9     9
 0.0002041363     1     6     9    14
 -0.0008970209     1     6    10    10
 0.0102785560     1     6    11     2
 -0.0005358080     1     6    11     4
 0.0006133240     1     6    11    11
 0.0002943272     1     6    11    15
 -0.0004676870     1     6    12     5
 -0.0003995346     1     6    12    12
 0.0002951207     1     6    13     7
 -0.0000263181     1     6    13    13
 -0.0525670253     1     6    14     1
 0.0022379708     1     6    14     3
 0.0013861076     1     6    14     9
 0.0001992817     1     6    14    14
 -0.0206128802     1     6    15     2
 0.0012159191     1     6    15     4
 0.0000458521     1     6    15    11
 0.0004364481     1     6    15    15
 0.0002048014     1     7     2     5
 0.0000919737     1     7     2    12
 0.0004596279     1     7     3    13
 0.0020676436     1     7     4     5
 0.0020432346     1     7     4    12
 0.1661539793     1     7     5     2
 -0.0059662120     1     7     5     4
 0.0015892474     1     7     5    11
 0.0015549666     1     7     5    15
 0.0006365470     1     7     6    13
 -0.4498223125     1     7     7     1
 0.0086545585     1     7     7     3
 0.0017875130     1     7     7     6
 0.0014541933     1     7     7     9
 0.0006143599     1     7     7    14
 -0.0004118563     1     7     9    13
 0.0000016403     1     7    11     5
 0.0004109878     1     7    11    12
 0.0275406094     1     7    12     2
 -0.0019242699     1     7    12     4
 0.0013005475     1     7    12    11
 0.0000226757     1     7    12    15
 0.0565888392     1     7    13     1
 -0.0021552432     1     7    13     3
 -0.0002951207     1     7    13     6
 -0.0009888185     1     7    13     9
 -0.0003030088     1     7    13    14
 0.0000190623     1     7    14    13
 -0.0004496270     1     7    15     5
 -0.0006163573     1     7    15    12
 0.0002373390     1     8     2    10
 0.0016123056     1     8     4    10
 -0.5353703167     1     8     8     1
 0.0134911641     1     8     8     3
 0.0042554207     1     8     8     6
 0.0038003135     1     8     8     9
 0.0002853401     1     8     8    14
 -0.1131727439     1     8    10     2
 0.0056435461     1     8    10     4
 -0.0019223770     1     8    10    11
 -0.0000789564     1     8    10    15
 -0.0001515928     1     8    11    10
 0.0003386458     1     8    15    10
 -0.0025860821     1     9     2     2
 0.0000698416     1     9     2     4
 -0.0000209528     1     9     2    11
 0.0000171135     1     9     2    15
 -0.0343288592     1     9     3     1
 -0.0026558692     1     9     3     3
 0.0023293558     1     9     3     6
 0.0003548765     1     9     3    14
 -0.0419571303     1     9     4     2
 -0.0001179837     1     9     4     4
 0.0000653625     1     9     4    11
 -0.0001229571     1     9     4    15
 -0.0018180687     1     9     5     5
 -0.0008534449     1     9     5    12
 -0.0481772275     1     9     6     1
 0.0049445027     1     9     6     3
 -0.0043503790     1     9     6     6
 -0.0011945006     1     9     6    14
 -0.0014541933     1     9     7     7
 0.0005889692     1     9     7    13
 -0.0038003135     1     9     8     8
 -0.2242286633     1     9     9     1
 0.0009230377     1     9     9     3
 -0.0004119991     1     9     9     6
 -0.0000732782     1     9     9    14
 -0.0016246304     1     9    10    10
 0.0373347345     1     9    11     2
 0.0004944094     1     9    11     4
 -0.0000589227     1     9    11    11
 0.0002929342     1     9    11    15
 -0.0024492118     1     9    12     5
 -0.0010985723     1     9    12    12
 0.0009888185     1     9    13     7
 -0.0003612486     1     9    13    13
 0.0089043022     1     9    14     1
 0.0010001219     1     9    14     3
 -0.0013861076     1     9    14     6
 -0.0002262348     1     9    14    14
 -0.0133160850     1     9    15     2
 0.0000435985     1     9    15     4
 0.0000897522     1     9    15    11
 0.0000226200     1     9    15    15
 -0.0002373390     1    10     2     8
 -0.0016123056     1    10     4     8
 -0.1134258148     1    10     8     2
 0.0046842754     1    10     8     4
 -0.0018630615     1    10     8    11
 -0.0004122348     1    10     8    15
 -0.4010895496     1    10    10     1
 0.0068864895     1    10    10     3
 0.0008970209     1    10    10     6
 0.0016246304     1    10    10     9
 -0.0005273171     1    10    10    14
 0.0001515928     1    10    11     8
 -0.0003386458     1    10    15     8
 -0.0013791198     1    11     2     1
 -0.0000259944     1    11     2     3
 0.0000934686     1    11     2     6
 0.0000209528     1    11     2     9
 0.0000204511     1    11     2    14
 0.0339313496     1    11     3     2
 -0.0002018047     1    11     3     4
 -0.0000354703     1    11     3    15
 0.0589960202     1    11     4     1
 -0.0011315298     1    11     4     3
 0.0003941449     1    11     4     6
 -0.0000653625     1    11     4     9
 0.0002348299     1    11     4    14
 -0.0015892474     1    11     5     7
 0.0007029873     1    11     5    13
 0.0103700048     1    11     6     2
 -0.0001525206     1    11     6     4
 0.0002799439     1    11     6    15
 -0.0015808137     1    11     7     5
 -0.0009353147     1    11     7    12
 0.0018630615     1    11     8    10
 0.0373535313     1    11     9     2
 0.0004262262     1    11     9     4
 0.0002029288     1    11     9    15
 0.0019223770     1    11    10     8
 -0.2051008541     1    11    11     1
 0.0005703395     1    11    11     3
 -0.0006133240     1    11    11     6
 0.0000589227     1    11    11     9
 0.0000175083     1    11    11    14
 -0.0013005475     1    11    12     7
 0.0003531577     1    11    12    13
 0.0018403135     1    11    13     5
 0.0006815562     1    11    13    12
 -0.0000000001     1    11    13    13
 0.0238383374     1    11    14     2
 0.0006446819     1    11    14     4
 0.0004821590     1    11    14    15
 -0.0030217026     1    11    15     1
 -0.0001628562     1    11    15     3
 -0.0000458521     1    11    15     6
 -0.0000897522     1    11    15     9
 0.0002733328     1    11    15    14
 -0.0000919737     1    12     2     7
 0.0000363584     1    12     2    13
 0.0011689168     1    12     3     5
 -0.0020432346     1    12     4     7
 0.0002636479     1    12     4    13
 -0.0702202858     1    12     5     1
 0.0046005433     1    12     5     3
 0.0019964388     1    12     5     6
 0.0008534449     1    12     5     9
 0.0009226147     1    12     5    14
 0.0014525882     1    12     6     5
 0.0274559718     1    12     7     2
 -0.0041488912     1    12     7     4
 0.0009353147     1    12     7    11
 0.0006610337     1    12     7    15
 -0.0016118104     1    12     9     5
 -0.0004109878     1    12    11     7
 -0.0003286773     1    12    11    13
 -0.2202388218     1    12    12     1
 0.0017103066     1    12    12     3
 0.0003995346     1    12    12     6
 0.0010985723     1    12    12     9
 0.0001308987     1    12    12    14
 -0.0372390717     1    12    13     2
 0.0005936029     1    12    13     4
 -0.0006815562     1    12    13    11
 -0.0000393130     1    12    13    15
 0.0006395619     1    12    14     5
 0.0006163573     1    12    15     7
 0.0001369030     1    12    15    13
 0.0000000001     1    12    15    15
 -0.0000785183     1    13     2     5
 -0.0000363584     1    13     2    12
 -0.0004596279     1    13     3     7
 0.0004235977     1    13     4     5
 -0.0002636479     1    13     4    12
 -0.0330396142     1    13     5     2
 0.0025330308     1    13     5     4
 -0.0007029873     1    13     5    11
 -0.0004544218     1    13     5    15
 -0.0006365470     1    13     6     7
 0.0565888392     1    13     7     1
 -0.0028612193     1    13     7     3
 -0.0010313258     1    13     7     6
 -0.0005889692     1    13     7     9
 -0.0003346917     1    13     7    14
 0.0004118563     1    13     9     7
 0.0011627332     1    13    11     5
 0.0003286773     1    13    11    12
 -0.0372731510     1    13    12     2
 0.0003361226     1    13    12     4
 -0.0003531577     1    13    12    11
 -0.0001757363     1    13    12    15
 -0.1890960998     1    13    13     1
 0.0010865335     1    13    13     3
 0.0000263181     1    13    13     6
 0.0003612486     1    13    13     9
 0.0000000001     1    13    13    11
 0.0000814738     1    13    13    14
 0.0000000002     1    13    13    15
 -0.0000190623     1    13    14     7
 0.0000000001     1    13    15     3
 -0.0006796244     1    13    15     5
 -0.0001369030     1    13    15    12
 -0.0000000001     1    13    15    15
 -0.0026946975     1    14     2     2
 0.0000736779     1    14     2     4
 -0.0000204511     1    14     2    11
 0.0000198429     1    14     2    15
 0.0160635753     1    14     3     1
 -0.0020243458     1    14     3     3
 0.0006347171     1    14     3     6
 -0.0003548765     1    14     3     9
 -0.0074086827     1    14     4     2
 0.0011293756     1    14     4     4
 -0.0002348299     1    14     4    11
 0.0002154608     1    14     4    15
 -0.0018365551     1    14     5     5
 -0.0009226147     1    14     5    12
 -0.0525670253     1    14     6     1
 0.0031214008     1    14     6     3
 0.0013523084     1    14     6     6
 0.0011945006     1    14     6     9
 -0.0006143599     1    14     7     7
 0.0003346917     1    14     7    13
 -0.0002853401     1    14     8     8
 0.0089043022     1    14     9     1
 0.0006633815     1    14     9     3
 -0.0002041363     1    14     9     6
 0.0000732782     1    14     9     9
 0.0005273171     1    14    10    10
 0.0238189994     1    14    11     2
 0.0004022283     1    14    11     4
 -0.0000175083     1    14    11    11
 0.0002080104     1    14    11    15
 -0.0002577917     1    14    12     5
 -0.0001308987     1    14    12    12
 0.0003030088     1    14    13     7
 -0.0000814738     1    14    13    13
 -0.2410027958     1    14    14     1
 0.0007491105     1    14    14     3
 -0.0001992817     1    14    14     6
 0.0002262348     1    14    14     9
 0.0307617636     1    14    15     2
 0.0012241672     1    14    15     4
 -0.0002733328     1    14    15    11
 0.0003672928     1    14    15    15
 0.0013124542     1    15     2     1
 0.0000278363     1    15     2     3
 -0.0000845218     1    15     2     6
 -0.0000171135     1    15     2     9
 -0.0000198429     1    15     2    14
 0.0065162841     1    15     3     2
 0.0002591755     1    15     3     4
 0.0000354703     1    15     3    11
 -0.0014205923     1    15     4     1
 0.0012637003     1    15     4     3
 -0.0001479967     1    15     4     6
 0.0001229571     1    15     4     9
 -0.0002154608     1    15     4    14
 -0.0015549666     1    15     5     7
 0.0004544218     1    15     5    13
 -0.0206952728     1    15     6     2
 0.0011739432     1    15     6     4
 -0.0002799439     1    15     6    11
 -0.0021003616     1    15     7     5
 -0.0006610337     1    15     7    12
 0.0004122348     1    15     8    10
 -0.0133322822     1    15     9     2
 0.0001604119     1    15     9     4
 -0.0002029288     1    15     9    11
 0.0000789564     1    15    10     8
 -0.0030217026     1    15    11     1
 -0.0001356724     1    15    11     3
 -0.0002943272     1    15    11     6
 -0.0002929342     1    15    11     9
 -0.0002080104     1    15    11    14
 -0.0000226757     1    15    12     7
 0.0001757363     1    15    12    13
 0.0000000001     1    15    13     3
 -0.0002439994     1    15    13     5
 0.0000393130     1    15    13    12
 -0.0000000002     1    15    13    13
 0.0307436457     1    15    14     2
 0.0010050568     1    15    14     4
 -0.0004821590     1    15    14    11
 -0.2112953003     1    15    15     1
 0.0003923708     1    15    15     3
 -0.0004364481     1    15    15     6
 -0.0000226200     1    15    15     9
 -0.0000000001     1    15    15    12
 0.0000000001     1    15    15    13
 -0.0003672928     1    15    15    14
 -0.3951869788     2     1     1     2
 0.0051563319     2     1     1     4
 -0.0013791198     2     1     1    11
 0.0013124542     2     1     1    15
 -0.0042217545     2     1     3     2
 0.1503387466     2     1     3     4
 -0.0339471690     2     1     3    11
 -0.0064889555     2     1     3    15
 0.1502242057     2     1     4     3
 0.1297027967     2     1     4     6
 0.0420162526     2     1     4     9
 0.0074772459     2     1     4    14
 -0.1659457988     2     1     5     7
 0.0329555086     2     1     5    13
 0.0129535971     2     1     6     2
 0.1293587350     2     1     6     4
 -0.0102785560     2     1     6    11
 0.0206128802     2     1     6    15
 -0.1661539793     2     1     7     5
 -0.0275406094     2     1     7    12
 0.1131727439     2     1     8    10
 0.0025860821     2     1     9     2
 0.0419571303     2     1     9     4
 -0.0373347345     2     1     9    11
 0.0133160850     2     1     9    15
 0.1134258148     2     1    10     8
 -0.0339313496     2     1    11     3
 -0.0103700048     2     1    11     6
 -0.0373535313     2     1    11     9
 -0.0238383374     2     1    11    14
 -0.0274559718     2     1    12     7
 0.0372390717     2     1    12    13
 0.0330396142     2     1    13     5
 0.0372731510     2     1    13    12
 0.0026946975     2     1    14     2
 0.0074086827     2     1    14     4
 -0.0238189994     2     1    14    11
 -0.0307617636     2     1    14    15
 -0.0065162841     2     1    15     3
 0.0206952728     2     1    15     6
 0.0133322822     2     1    15     9
 -0.0307436457     2     1    15    14
 0.3951869788     2     2     1     1
 0.0042217545     2     2     1     3
 -0.0129535971     2     2     1     6
 -0.0025860821     2     2     1     9
 -0.0026946975     2     2     1    14
 0.0042217545     2     2     3     1
 0.5961900013     2     2     3     3
 -0.1110198401     2     2     3     6
 0.0342833408     2     2     3     9
 -0.0161120105     2     2     3    14
 0.4824055738     2     2     4     4
 -0.0589572992     2     2     4    11
 0.0013928789     2     2     4    15
 0.4843545805     2     2     5     5
 0.0703210702     2     2     5    12
 -0.0129535971     2     2     6     1
 -0.1110198401     2     2     6     3
 0.5644500464     2     2     6     6
 0.0483434719     2     2     6     9
 0.0527402279     2     2     6    14
 0.4496733287     2     2     7     7
 -0.0565244198     2     2     7    13
 0.5357454467     2     2     8     8
 -0.0025860821     2     2     9     1
 0.0342833408     2     2     9     3
 0.0483434719     2     2     9     6
 0.2242665090     2     2     9     9
 -0.0088645722     2     2     9    14
 0.4009481237     2     2    10    10
 -0.0589572992     2     2    11     4
 0.2050939153     2     2    11    11
 0.0030303949     2     2    11    15
 0.0703210702     2     2    12     5
 0.2202883880     2     2    12    12
 -0.0565244198     2     2    13     7
 0.1890747223     2     2    13    13
 -0.0026946975     2     2    14     1
 -0.0161120105     2     2    14     3
 0.0527402279     2     2    14     6
 -0.0088645722     2     2    14     9
 0.2410450866     2     2    14    14
 0.0013928789     2     2    15     4
 0.0030303949     2     2    15    11
 0.2112896017     2     2    15    15
 -0.0042217545     2     3     1     2
 0.0001149066     2     3     1     4
 -0.0000259944     2     3     1    11
 0.0000278363     2     3     1    15
 -0.5961900013     2     3     3     2
 0.0037864260     2     3     3     4
 -0.0013670198     2     3     3    11
 0.0012938366     2     3     3    15
 -0.1502242057     2     3     4     1
 -0.0110179401     2     3     4     6
 -0.0025532118     2     3     4     9
 -0.0017315350     2     3     4    14
 0.0132280616     2     3     5     7
 -0.0042838988     2     3     5    13
 0.1110198401     2     3     6     2
 -0.0120183058     2     3     6     4
 0.0029469892     2     3     6    11
 -0.0025024055     2     3     6    15
 0.0108750653     2     3     7     5
 0.0037327685     2     3     7    12
 -0.0114948920     2     3     8    10
 -0.0342833408     2     3     9     2
 -0.0017052937     2     3     9     4
 0.0011542527     2     3     9    11
 -0.0005761298     2     3     9    15
 -0.0078338455     2     3    10     8
 0.0339313496     2     3    11     1
 0.0016126461     2     3    11     6
 0.0011686949     2     3    11     9
 0.0008293840     2     3    11    14
 0.0033367576     2     3    12     7
 -0.0020040092     2     3    12    13
 -0.0025898396     2     3    13     5
 -0.0018030970     2     3    13    12
 0.0161120105     2     3    14     2
 -0.0014218058     2     3    14     4
 0.0009858518     2     3    14    11
 0.0002807759     2     3    14    15
 0.0065162841     2     3    15     1
 -0.0014467111     2     3    15     6
 -0.0006324920     2     3    15     9
 0.0003988320     2     3    15    14
 0.0000000001     2     3    15    15
 -0.0051563319     2     4     1     1
 -0.0001149066     2     4     1     3
 0.0003440851     2     4     1     6
 0.0000698416     2     4     1     9
 0.0000736779     2     4     1    14
 -0.1503387466     2     4     3     1
 -0.0037864260     2     4     3     3
 0.0009971816     2     4     3     6
 -0.0006240089     2     4     3     9
 -0.0001144619     2     4     3    14
 -0.4824055738     2     4     4     2
 -0.0000002026     2     4     4    11
 -0.0002719555     2     4     4    15
 -0.0097671989     2     4     5     5
 -0.0041109220     2     4     5    12
 -0.1293587350     2     4     6     1
 0.0120183058     2     4     6     3
 -0.0163237766     2     4     6     6
 -0.0016552417     2     4     6     9
 -0.0037737879     2     4     6    14
 -0.0094394579     2     4     7     7
 0.0034563241     2     4     7    13
 -0.0116259117     2     4     8     8
 -0.0419571303     2     4     9     1
 0.0017052937     2     4     9     3
 -0.0027278213     2     4     9     6
 -0.0006676311     2     4     9     9
 -0.0005795107     2     4     9    14
 -0.0068817027     2     4    10    10
 0.0589572992     2     4    11     2
 0.0000358801     2     4    11    11
 0.0002012097     2     4    11    15
 -0.0026162909     2     4    12     5
 -0.0015222349     2     4    12    12
 0.0021044435     2     4    13     7
 -0.0009558781     2     4    13    13
 -0.0074086827     2     4    14     1
 0.0014218058     2     4    14     3
 -0.0019320527     2     4    14     6
 0.0000313980     2     4    14     9
 -0.0004932713     2     4    14    14
 -0.0013928789     2     4    15     2
 0.0001672652     2     4    15    11
 -0.0000453755     2     4    15    15
 0.0002048014     2     5     1     7
 -0.0000785183     2     5     1    13
 0.0023380520     2     5     3     7
 -0.0013611029     2     5     3    13
 -0.0012196493     2     5     4    12
 -0.4843545805     2     5     5     2
 0.0097671989     2     5     5     4
 -0.0025951319     2     5     5    11
 -0.0006969029     2     5     5    15
 -0.0009652540     2     5     6     7
 -0.0002860352     2     5     6    13
 0.1661539793     2     5     7     1
 -0.0108750653     2     5     7     3
 0.0033800024     2     5     7     6
 -0.0004872156     2     5     7     9
 0.0004339265     2     5     7    14
 -0.0003861876     2     5     9     7
 0.0005822433     2     5     9    13
 -0.0004327679     2     5    11    12
 -0.0703210702     2     5    12     2
 0.0026162909     2     5    12     4
 -0.0015429168     2     5    12    11
 0.0001623057     2     5    12    15
 -0.0330396142     2     5    13     1
 0.0025898396     2     5    13     3
 -0.0005428076     2     5    13     6
 0.0008403025     2     5    13     9
 0.0001134647     2     5    13    14
 0.0003553115     2     5    14     7
 -0.0001773792     2     5    14    13
 0.0004127962     2     5    15    12
 0.0129535971     2     6     1     2
 -0.0003440851     2     6     1     4
 0.0000934686     2     6     1    11
 -0.0000845218     2     6     1    15
 0.1110198401     2     6     3     2
 -0.0009971816     2     6     3     4
 0.0011089043     2     6     3    11
 -0.0009271420     2     6     3    15
 -0.1297027967     2     6     4     1
 0.0110179401     2     6     4     3
 0.0013768798     2     6     4     9
 -0.0015809401     2     6     4    14
 -0.0043314426     2     6     5     7
 0.0003860674     2     6     5    13
 -0.5644500464     2     6     6     2
 0.0163237766     2     6     6     4
 -0.0038764493     2     6     6    11
 0.0016338668     2     6     6    15
 -0.0033800024     2     6     7     5
 0.0007658127     2     6     7    12
 0.0050187425     2     6     8    10
 -0.0483434719     2     6     9     2
 0.0027278213     2     6     9     4
 -0.0022393964     2     6     9    11
 0.0006042748     2     6     9    15
 0.0023724040     2     6    10     8
 0.0103700048     2     6    11     1
 -0.0016126461     2     6    11     3
 -0.0019054469     2     6    11     9
 -0.0013525841     2     6    11    14
 -0.0009339938     2     6    12     7
 0.0018375854     2     6    12    13
 0.0005428076     2     6    13     5
 0.0014326032     2     6    13    12
 -0.0527402279     2     6    14     2
 0.0019320527     2     6    14     4
 -0.0022565202     2     6    14    11