&FCI NORB= 13,NELEC= 10,MS2=0,
 ORBSYM=1,1,1,1,1,1,1,1,1,1,1,1,1
 ISYM=1,
&END
 0.9822413606     1     1     2     2
 0.0722387164     1     1     2     4
 -0.1816585849     1     1     2     6
 0.1468170877     1     1     2     9
 -0.0170248721     1     1     2    10
 0.1253732566     1     1     2    13
 0.8556440682     1     1     3     3
 -0.2264661943     1     1     3     7
 0.1502650666     1     1     3     8
 -0.3041678677     1     1     3    12
 0.0722387164     1     1     4     2
 0.9521228800     1     1     4     4
 0.1042570773     1     1     4     6
 -0.1562646122     1     1     4     9
 -0.3596016318     1     1     4    10
 0.0813683725     1     1     4    13
 1.0065484491     1     1     5     5
 0.4556123681     1     1     5    11
 -0.1816585849     1     1     6     2
 0.1042570773     1     1     6     4
 0.3992215796     1     1     6     6
 -0.1606562423     1     1     6     9
 -0.0847975775     1     1     6    10
 -0.0589597931     1     1     6    13
 -0.2264661943     1     1     7     3
 0.3926358626     1     1     7     7
 -0.1545710988     1     1     7     8
 0.2065789991     1     1     7    12
 0.1502650666     1     1     8     3
 -0.1545710988     1     1     8     7
 0.5543061103     1     1     8     8
 -0.1088002449     1     1     8    12
 0.1468170877     1     1     9     2
 -0.1562646122     1     1     9     4
 -0.1606562423     1     1     9     6
 0.5749163819     1     1     9     9
 0.1222008112     1     1     9    10
 0.0005339527     1     1     9    13
 -0.0170248721     1     1    10     2
 -0.3596016318     1     1    10     4
 -0.0847975775     1     1    10     6
 0.1222008112     1     1    10     9
 0.7949790029     1     1    10    10
 -0.0480821868     1     1    10    13
 0.4556123681     1     1    11     5
 0.9487548248     1     1    11    11
 -0.3041678677     1     1    12     3
 0.2065789991     1     1    12     7
 -0.1088002449     1     1    12     8
 0.7471822677     1     1    12    12
 0.1253732566     1     1    13     2
 0.0813683725     1     1    13     4
 -0.0589597931     1     1    13     6
 0.0005339527     1     1    13     9
 -0.0480821868     1     1    13    10
 0.5640059867     1     1    13    13
 -0.9822413606     1     2     2     1
 -0.0068314378     1     2     2     4
 -0.0026016232     1     2     2     6
 0.0044823979     1     2     2     9
 0.0089690701     1     2     2    10
 -0.0007821618     1     2     2    13
 0.0296531514     1     2     3     3
 -0.0165054975     1     2     3     7
 0.0164452465     1     2     3     8
 -0.0332281070     1     2     3    12
 -0.0722387164     1     2     4     1
 0.0353365270     1     2     4     4
 0.0095678808     1     2     4     6
 -0.0168599000     1     2     4     9
 -0.0358109998     1     2     4    10
 0.0049491330     1     2     4    13
 0.0409669360     1     2     5     5
 0.0477481205     1     2     5    11
 0.1816585849     1     2     6     1
 0.0095932626     1     2     6     4
 0.0025893165     1     2     6     6
 -0.0049009073     1     2     6     9
 -0.0101614615     1     2     6    10
 0.0013325759     1     2     6    13
 -0.0131130547     1     2     7     3
 0.0073597075     1     2     7     7
 -0.0074321819     1     2     7     8
 0.0152878387     1     2     7    12
 0.0115882450     1     2     8     3
 -0.0064786774     1     2     8     7
 0.0061913741     1     2     8     8
 -0.0126885788     1     2     8    12
 -0.1468170877     1     2     9     1
 -0.0142439462     1     2     9     4
 -0.0039591451     1     2     9     6
 0.0067879363     1     2     9     9
 0.0157552546     1     2     9    10
 -0.0025862404     1     2     9    13
 0.0170248721     1     2    10     1
 -0.0238855632     1     2    10     4
 -0.0061386093     1     2    10     6
 0.0119249171     1     2    10     9
 0.0266054036     1     2    10    10
 -0.0052487427     1     2    10    13
 0.0316551798     1     2    11     5
 0.0404060551     1     2    11    11
 -0.0204552014     1     2    12     3
 0.0118732388     1     2    12     7
 -0.0112822936     1     2    12     8
 0.0253122418     1     2    12    12
 -0.1253732566     1     2    13     1
 0.0027332618     1     2    13     4
 0.0006560943     1     2    13     6
 -0.0017467587     1     2    13     9
 -0.0045226015     1     2    13    10
 0.0012309927     1     2    13    13
 -0.0031559343     1     3     2     7
 0.0046526346     1     3     2     8
 -0.0123632501     1     3     2    12
 -0.8556440682     1     3     3     1
 -0.0296531514     1     3     3     2
 -0.0102597613     1     3     3     4
 0.0048102182     1     3     3     6
 0.0007272477     1     3     3     9
 0.0050469426     1     3     3    10
 -0.0114882332     1     3     3    13
 0.0017743196     1     3     4     7
 -0.0059604407     1     3     4     8
 -0.0021902350     1     3     4    12
 -0.0024913877     1     3     6     7
 -0.0003607188     1     3     6     8
 -0.0017531763     1     3     6    12
 0.2264661943     1     3     7     1
 0.0131130547     1     3     7     2
 0.0044990734     1     3     7     4
 -0.0061308005     1     3     7     6
 0.0033777747     1     3     7     9
 -0.0010202742     1     3     7    10
 0.0051805409     1     3     7    13
 -0.1502650666     1     3     8     1
 -0.0115882450     1     3     8     2
 -0.0036371699     1     3     8     4
 0.0048045275     1     3     8     6
 -0.0088210079     1     3     8     9
 -0.0032445685     1     3     8    10
 -0.0057187051     1     3     8    13
 0.0022103538     1     3     9     7
 -0.0048550108     1     3     9     8
 0.0053473140     1     3     9    12
 -0.0011377638     1     3    10     7
 0.0021539018     1     3    10     8
 -0.0041461736     1     3    10    12
 0.3041678677     1     3    12     1
 0.0204552014     1     3    12     2
 0.0071648078     1     3    12     4
 -0.0081988465     1     3    12     6
 0.0059221836     1     3    12     9
 -0.0078379644     1     3    12    10
 0.0093682236     1     3    12    13
 -0.0008196495     1     3    13     7
 -0.0006792124     1     3    13     8
 -0.0037041318     1     3    13    12
 -0.0722387164     1     4     2     1
 0.0068314378     1     4     2     2
 -0.0001628270     1     4     2     6
 -0.0024555644     1     4     2     9
 -0.0114548067     1     4     2    10
 0.0021983762     1     4     2    13
 0.0102597613     1     4     3     3
 -0.0027319360     1     4     3     7
 -0.0023849323     1     4     3     8
 -0.0094723831     1     4     3    12
 -0.9521228800     1     4     4     1
 -0.0353365270     1     4     4     2
 0.0109162226     1     4     4     6
 -0.0128868534     1     4     4     9
 -0.0061313567     1     4     4    10
 0.0004160810     1     4     4    13
 0.0138239786     1     4     5     5
 0.0151849432     1     4     5    11
 -0.1042570773     1     4     6     1
 -0.0095932626     1     4     6     2
 0.0056326819     1     4     6     6
 -0.0052060232     1     4     6     9
 -0.0023200411     1     4     6    10
 -0.0011175790     1     4     6    13
 -0.0044990734     1     4     7     3
 0.0038710940     1     4     7     7
 -0.0016851173     1     4     7     8
 0.0067355266     1     4     7    12
 0.0036371699     1     4     8     3
 -0.0040791945     1     4     8     7
 0.0061906169     1     4     8     8
 -0.0107849488     1     4     8    12
 0.1562646122     1     4     9     1
 0.0142439462     1     4     9     2
 -0.0070317887     1     4     9     6
 0.0110971206     1     4     9     9
 -0.0002211106     1     4     9    10
 0.0035213955     1     4     9    13
 0.3596016318     1     4    10     1
 0.0238855632     1     4    10     2
 -0.0122061499     1     4    10     6
 0.0103822052     1     4    10     9
 0.0045657013     1     4    10    10
 0.0095841130     1     4    10    13
 0.0108766644     1     4    11     5
 0.0135073664     1     4    11    11
 -0.0071648078     1     4    12     3
 0.0035401977     1     4    12     7
 -0.0028068810     1     4    12     8
 0.0056017971     1     4    12    12
 -0.0813683725     1     4    13     1
 -0.0027332618     1     4    13     2
 0.0003465670     1     4    13     6
 0.0018219619     1     4    13     9
 0.0090830069     1     4    13    10
 0.0004523141     1     4    13    13
 0.0155574031     1     5     2    11
 0.0042351225     1     5     4    11
 -1.0065484491     1     5     5     1
 -0.0409669360     1     5     5     2
 -0.0138239786     1     5     5     4
 0.0102538515     1     5     5     6
 -0.0123530416     1     5     5     9
 0.0092817980     1     5     5    10
 -0.0123320104     1     5     5    13
 0.0002732638     1     5     6    11
 0.0047056417     1     5     9    11
 -0.0024813398     1     5    10    11
 -0.4556123681     1     5    11     1
 -0.0316551798     1     5    11     2
 -0.0108766644     1     5    11     4
 0.0131149056     1     5    11     6
 -0.0108228388     1     5    11     9
 0.0078000126     1     5    11    10
 -0.0143734777     1     5    11    13
 0.0005630748     1     5    13    11
 0.1816585849     1     6     2     1
 0.0026016232     1     6     2     2
 0.0001628270     1     6     2     4
 -0.0009476503     1     6     2     9
 -0.0039091553     1     6     2    10
 0.0006373103     1     6     2    13
 -0.0048102182     1     6     3     3
 0.0036514900     1     6     3     7
 -0.0051833554     1     6     3     8
 0.0065204222     1     6     3    12
 -0.1042570773     1     6     4     1
 -0.0095678808     1     6     4     2
 -0.0109162226     1     6     4     4
 0.0018769490     1     6     4     9
 0.0099419183     1     6     4    10
 -0.0015142166     1     6     4    13
 -0.0102538515     1     6     5     5
 -0.0126701438     1     6     5    11
 -0.3992215796     1     6     6     1
 -0.0025893165     1     6     6     2
 -0.0056326819     1     6     6     4
 0.0013477140     1     6     6     9
 0.0051313843     1     6     6    10
 -0.0011360298     1     6     6    13
 0.0061308005     1     6     7     3
 -0.0029195551     1     6     7     7
 0.0034398431     1     6     7     8
 -0.0063855179     1     6     7    12
 -0.0048045275     1     6     8     3
 0.0020226150     1     6     8     7
 -0.0012275273     1     6     8     8
 0.0034039890     1     6     8    12
 0.1606562423     1     6     9     1
 0.0039591451     1     6     9     2
 0.0070317887     1     6     9     4
 -0.0002661532     1     6     9     9
 -0.0075531642     1     6     9    10
 0.0021401278     1     6     9    13
 0.0847975775     1     6    10     1
 0.0061386093     1     6    10     2
 0.0122061499     1     6    10     4
 -0.0032838633     1     6    10     9
 -0.0116769272     1     6    10    10
 0.0049303149     1     6    10    13
 -0.0131149056     1     6    11     5
 -0.0158455577     1     6    11    11
 0.0081988465     1     6    12     3
 -0.0047138742     1     6    12     7
 0.0047107167     1     6    12     8
 -0.0103627082     1     6    12    12
 0.0589597931     1     6    13     1
 -0.0006560943     1     6    13     2
 -0.0003465670     1     6    13     4
 0.0007924259     1     6    13     9
 0.0033913213     1     6    13    10
 -0.0000425178     1     6    13    13
 0.0031559343     1     7     2     3
 -0.0009388457     1     7     2     8
 0.0032521093     1     7     2    12
 0.2264661943     1     7     3     1
 0.0165054975     1     7     3     2
 0.0027319360     1     7     3     4
 -0.0036514900     1     7     3     6
 0.0011732929     1     7     3     9
 0.0001450757     1     7     3    10
 0.0060258445     1     7     3    13
 -0.0017743196     1     7     4     3
 0.0023672845     1     7     4     8
 0.0031041536     1     7     4    12
 0.0024913877     1     7     6     3
 0.0014171712     1     7     6     8
 -0.0016584259     1     7     6    12
 -0.3926358626     1     7     7     1
 -0.0073597075     1     7     7     2
 -0.0038710940     1     7     7     4
 0.0029195551     1     7     7     6
 -0.0012320192     1     7     7     9
 0.0018528421     1     7     7    10
 -0.0030392440     1     7     7    13
 0.1545710988     1     7     8     1
 0.0064786774     1     7     8     2
 0.0040791945     1     7     8     4
 -0.0020226150     1     7     8     6
 0.0037057814     1     7     8     9
 -0.0002798337     1     7     8    10
 0.0034157585     1     7     8    13
 -0.0022103538     1     7     9     3
 0.0014617716     1     7     9     8
 -0.0005006398     1     7     9    12
 0.0011377638     1     7    10     3
 -0.0005867469     1     7    10     8
 0.0009891592     1     7    10    12
 -0.2065789991     1     7    12     1
 -0.0118732388     1     7    12     2
 -0.0035401977     1     7    12     4
 0.0047138742     1     7    12     6
 -0.0035814438     1     7    12     9
 0.0037472127     1     7    12    10
 -0.0051244493     1     7    12    13
 0.0008196495     1     7    13     3
 0.0007681056     1     7    13     8
 0.0011493640     1     7    13    12
 -0.0046526346     1     8     2     3
 0.0009388457     1     8     2     7
 -0.0013080220     1     8     2    12
 -0.1502650666     1     8     3     1
 -0.0164452465     1     8     3     2
 0.0023849323     1     8     3     4
 0.0051833554     1     8     3     6
 -0.0039589453     1     8     3     9
 -0.0052829146     1     8     3    10
 -0.0051376895     1     8     3    13
 0.0059604407     1     8     4     3
 -0.0023672845     1     8     4     7
 -0.0077876649     1     8     4    12
 0.0003607188     1     8     6     3
 -0.0014171712     1     8     6     7
 -0.0013228371     1     8     6    12
 0.1545710988     1     8     7     1
 0.0074321819     1     8     7     2
 0.0016851173     1     8     7     4
 -0.0034398431     1     8     7     6
 0.0022480852     1     8     7     9
 0.0003176559     1     8     7    10
 0.0026495185     1     8     7    13
 -0.5543061103     1     8     8     1
 -0.0061913741     1     8     8     2
 -0.0061906169     1     8     8     4
 0.0012275273     1     8     8     6
 -0.0023888644     1     8     8     9
 0.0024117493     1     8     8    10
 -0.0034533483     1     8     8    13
 0.0048550108     1     8     9     3
 -0.0014617716     1     8     9     7
 -0.0023882972     1     8     9    12
 -0.0021539018     1     8    10     3
 0.0005867469     1     8    10     7
 0.0003190637     1     8    10    12
 0.1088002449     1     8    12     1
 0.0112822936     1     8    12     2
 0.0028068810     1     8    12     4
 -0.0047107167     1     8    12     6
 0.0037223296     1     8    12     9
 -0.0029199622     1     8    12    10
 0.0048621408     1     8    12    13
 0.0006792124     1     8    13     3
 -0.0007681056     1     8    13     7
 -0.0025852210     1     8    13    12
 -0.1468170877     1     9     2     1
 -0.0044823979     1     9     2     2
 0.0024555644     1     9     2     4
 0.0009476503     1     9     2     6
 0.0037482284     1     9     2    10
 -0.0008358674     1     9     2    13
 -0.0007272477     1     9     3     3
 -0.0011732929     1     9     3     7
 0.0039589453     1     9     3     8
 -0.0006979784     1     9     3    12
 0.1562646122     1     9     4     1
 0.0168599000     1     9     4     2
 0.0128868534     1     9     4     4
 -0.0018769490     1     9     4     6
 -0.0106415026     1     9     4    10
 0.0018210041     1     9     4    13
 0.0123530416     1     9     5     5
 0.0151985064     1     9     5    11
 0.1606562423     1     9     6     1
 0.0049009073     1     9     6     2
 0.0052060232     1     9     6     4
 -0.0013477140     1     9     6     6
 -0.0042682047     1     9     6    10
 0.0013485538     1     9     6    13
 -0.0033777747     1     9     7     3
 0.0012320192     1     9     7     7
 -0.0022480852     1     9     7     8
 0.0030769143     1     9     7    12
 0.0088210079     1     9     8     3
 -0.0037057814     1     9     8     7
 0.0023888644     1     9     8     8
 -0.0061105284     1     9     8    12
 -0.5749163819     1     9     9     1
 -0.0067879363     1     9     9     2
 -0.0110971206     1     9     9     4
 0.0002661532     1     9     9     6
 0.0116274905     1     9     9    10
 -0.0034557191     1     9     9    13
 -0.1222008112     1     9    10     1
 -0.0119249171     1     9    10     2
 -0.0103822052     1     9    10     4
 0.0032838633     1     9    10     6
 0.0090833493     1     9    10    10
 -0.0068336154     1     9    10    13
 0.0108228388     1     9    11     5
 0.0134193039     1     9    11    11
 -0.0059221836     1     9    12     3
 0.0035814438     1     9    12     7
 -0.0037223296     1     9    12     8
 0.0085053160     1     9    12    12
 -0.0005339527     1     9    13     1
 0.0017467587     1     9    13     2
 -0.0018219619     1     9    13     4
 -0.0007924259     1     9    13     6
 -0.0031222950     1     9    13    10
 -0.0001823279     1     9    13    13
 0.0170248721     1    10     2     1
 -0.0089690701     1    10     2     2
 0.0114548067     1    10     2     4
 0.0039091553     1    10     2     6
 -0.0037482284     1    10     2     9
 -0.0007517141     1    10     2    13
 -0.0050469426     1    10     3     3
 -0.0001450757     1    10     3     7
 0.0052829146     1    10     3     8
 0.0036963270     1    10     3    12
 0.3596016318     1    10     4     1
 0.0358109998     1    10     4     2
 0.0061313567     1    10     4     4
 -0.0099419183     1    10     4     6
 0.0106415026     1    10     4     9
 0.0007055720     1    10     4    13
 -0.0092817980     1    10     5     5
 -0.0099588110     1    10     5    11
 0.0847975775     1    10     6     1
 0.0101614615     1    10     6     2
 0.0023200411     1    10     6     4
 -0.0051313843     1    10     6     6
 0.0042682047     1    10     6     9
 0.0015392093     1    10     6    13
 0.0010202742     1    10     7     3
 -0.0018528421     1    10     7     7
 -0.0003176559     1    10     7     8
 -0.0027498335     1    10     7    12
 0.0032445685     1    10     8     3
 0.0002798337     1    10     8     7
 -0.0024117493     1    10     8     8
 0.0032183738     1    10     8    12
 -0.1222008112     1    10     9     1
 -0.0157552546     1    10     9     2
 0.0002211106     1    10     9     4
 0.0075531642     1    10     9     6
 -0.0116274905     1    10     9     9
 -0.0037125145     1    10     9    13
 -0.7949790029     1    10    10     1
 -0.0266054036     1    10    10     2
 -0.0045657013     1    10    10     4
 0.0116769272     1    10    10     6
 -0.0090833493     1    10    10     9
 -0.0109373075     1    10    10    13
 -0.0078000126     1    10    11     5
 -0.0094059992     1    10    11    11
 0.0078379644     1    10    12     3
 -0.0037472127     1    10    12     7
 0.0029199622     1    10    12     8
 -0.0058634512     1    10    12    12
 0.0480821868     1    10    13     1
 0.0045226015     1    10    13     2
 -0.0090830069     1    10    13     4
 -0.0033913213     1    10    13     6
 0.0031222950     1    10    13     9
 -0.0013383839     1    10    13    13
 -0.0155574031     1    11     2     5
 -0.0042351225     1    11     4     5
 -0.4556123681     1    11     5     1
 -0.0477481205     1    11     5     2
 -0.0151849432     1    11     5     4
 0.0126701438     1    11     5     6
 -0.0151985064     1    11     5     9
 0.0099588110     1    11     5    10
 -0.0147572198     1    11     5    13
 -0.0002732638     1    11     6     5
 -0.0047056417     1    11     9     5
 0.0024813398     1    11    10     5
 -0.9487548248     1    11    11     1
 -0.0404060551     1    11    11     2
 -0.0135073664     1    11    11     4
 0.0158455577     1    11    11     6
 -0.0134193039     1    11    11     9
 0.0094059992     1    11    11    10
 -0.0175289476     1    11    11    13
 -0.0005630748     1    11    13     5
 0.0123632501     1    12     2     3
 -0.0032521093     1    12     2     7
 0.0013080220     1    12     2     8
 0.3041678677     1    12     3     1
 0.0332281070     1    12     3     2
 0.0094723831     1    12     3     4
 -0.0065204222     1    12     3     6
 0.0006979784     1    12     3     9
 -0.0036963270     1    12     3    10
 0.0130963636     1    12     3    13
 0.0021902350     1    12     4     3
 -0.0031041536     1    12     4     7
 0.0077876649     1    12     4     8
 0.0017531763     1    12     6     3
 0.0016584259     1    12     6     7
 0.0013228371     1    12     6     8
 -0.2065789991     1    12     7     1
 -0.0152878387     1    12     7     2
 -0.0067355266     1    12     7     4
 0.0063855179     1    12     7     6
 -0.0030769143     1    12     7     9
 0.0027498335     1    12     7    10
 -0.0062925858     1    12     7    13
 0.1088002449     1    12     8     1
 0.0126885788     1    12     8     2
 0.0107849488     1    12     8     4
 -0.0034039890     1    12     8     6
 0.0061105284     1    12     8     9
 -0.0032183738     1    12     8    10
 0.0074563204     1    12     8    13
 -0.0053473140     1    12     9     3
 0.0005006398     1    12     9     7
 0.0023882972     1    12     9     8
 0.0041461736     1    12    10     3
 -0.0009891592     1    12    10     7
 -0.0003190637     1    12    10     8
 -0.7471822677     1    12    12     1
 -0.0253122418     1    12    12     2
 -0.0056017971     1    12    12     4
 0.0103627082     1    12    12     6
 -0.0085053160     1    12    12     9
 0.0058634512     1    12    12    10
 -0.0105453588     1    12    12    13
 0.0037041318     1    12    13     3
 -0.0011493640     1    12    13     7
 0.0025852210     1    12    13     8
 -0.1253732566     1    13     2     1
 0.0007821618     1    13     2     2
 -0.0021983762     1    13     2     4
 -0.0006373103     1    13     2     6
 0.0008358674     1    13     2     9
 0.0007517141     1    13     2    10
 0.0114882332     1    13     3     3
 -0.0060258445     1    13     3     7
 0.0051376895     1    13     3     8
 -0.0130963636     1    13     3    12
 -0.0813683725     1    13     4     1
 -0.0049491330     1    13     4     2
 -0.0004160810     1    13     4     4
 0.0015142166     1    13     4     6
 -0.0018210041     1    13     4     9
 -0.0007055720     1    13     4    10
 0.0123320104     1    13     5     5
 0.0147572198     1    13     5    11
 0.0589597931     1    13     6     1
 -0.0013325759     1    13     6     2
 0.0011175790     1    13     6     4
 0.0011360298     1    13     6     6
 -0.0013485538     1    13     6     9
 -0.0015392093     1    13     6    10
 -0.0051805409     1    13     7     3
 0.0030392440     1    13     7     7
 -0.0026495185     1    13     7     8
 0.0062925858     1    13     7    12
 0.0057187051     1    13     8     3
 -0.0034157585     1    13     8     7
 0.0034533483     1    13     8     8
 -0.0074563204     1    13     8    12
 -0.0005339527     1    13     9     1
 0.0025862404     1    13     9     2
 -0.0035213955     1    13     9     4
 -0.0021401278     1    13     9     6
 0.0034557191     1    13     9     9
 0.0037125145     1    13     9    10
 0.0480821868     1    13    10     1
 0.0052487427     1    13    10     2
 -0.0095841130     1    13    10     4
 -0.0049303149     1    13    10     6
 0.0068336154     1    13    10     9
 0.0109373075     1    13    10    10
 0.0143734777     1    13    11     5
 0.0175289476     1    13    11    11
 -0.0093682236     1    13    12     3
 0.0051244493     1    13    12     7
 -0.0048621408     1    13    12     8
 0.0105453588     1    13    12    12
 -0.5640059867     1    13    13     1
 -0.0012309927     1    13    13     2
 -0.0004523141     1    13    13     4
 0.0000425178     1    13    13     6
 0.0001823279     1    13    13     9
 0.0013383839     1    13    13    10
 -0.9822413606     2     1     1     2
 -0.0722387164     2     1     1     4
 0.1816585849     2     1     1     6
 -0.1468170877     2     1     1     9
 0.0170248721     2     1     1    10
 -0.1253732566     2     1     1    13
 0.0296531514     2     1     3     3
 -0.0131130547     2     1     3     7
 0.0115882450     2     1     3     8
 -0.0204552014     2     1     3    12
 -0.0068314378     2     1     4     2
 0.0353365270     2     1     4     4
 0.0095932626     2     1     4     6
 -0.0142439462     2     1     4     9
 -0.0238855632     2     1     4    10
 0.0027332618     2     1     4    13
 0.0409669360     2     1     5     5
 0.0316551798     2     1     5    11
 -0.0026016232     2     1     6     2
 0.0095678808     2     1     6     4
 0.0025893165     2     1     6     6
 -0.0039591451     2     1     6     9
 -0.0061386093     2     1     6    10
 0.0006560943     2     1     6    13
 -0.0165054975     2     1     7     3
 0.0073597075     2     1     7     7
 -0.0064786774     2     1     7     8
 0.0118732388     2     1     7    12
 0.0164452465     2     1     8     3
 -0.0074321819     2     1     8     7
 0.0061913741     2     1     8     8
 -0.0112822936     2     1     8    12
 0.0044823979     2     1     9     2
 -0.0168599000     2     1     9     4
 -0.0049009073     2     1     9     6
 0.0067879363     2     1     9     9
 0.0119249171     2     1     9    10
 -0.0017467587     2     1     9    13
 0.0089690701     2     1    10     2
 -0.0358109998     2     1    10     4
 -0.0101614615     2     1    10     6
 0.0157552546     2     1    10     9
 0.0266054036     2     1    10    10
 -0.0045226015     2     1    10    13
 0.0477481205     2     1    11     5
 0.0404060551     2     1    11    11
 -0.0332281070     2     1    12     3
 0.0152878387     2     1    12     7
 -0.0126885788     2     1    12     8
 0.0253122418     2     1    12    12
 -0.0007821618     2     1    13     2
 0.0049491330     2     1    13     4
 0.0013325759     2     1    13     6
 -0.0025862404     2     1    13     9
 -0.0052487427     2     1    13    10
 0.0012309927     2     1    13    13
 0.9822413606     2     2     1     1
 0.0068314378     2     2     1     4
 0.0026016232     2     2     1     6
 -0.0044823979     2     2     1     9
 -0.0089690701     2     2     1    10
 0.0007821618     2     2     1    13
 0.5247526361     2     2     3     3
 -0.0862518918     2     2     3     7
 0.0312735477     2     2     3     8
 -0.1007804445     2     2     3    12
 0.0068314378     2     2     4     1
 0.5531311751     2     2     4     4
 0.0428723203     2     2     4     6
 -0.0512508669     2     2     4     9
 -0.1161862353     2     2     4    10
 0.0343130894     2     2     4    13
 0.5844067302     2     2     5     5
 0.1477312778     2     2     5    11
 0.0026016232     2     2     6     1
 0.0428723203     2     2     6     4
 0.3312907003     2     2     6     6
 -0.0787083331     2     2     6     9
 -0.0404347297     2     2     6    10
 -0.0216964305     2     2     6    13
 -0.0862518918     2     2     7     3
 0.3276902717     2     2     7     7
 -0.0854701583     2     2     7     8
 0.0935058422     2     2     7    12
 0.0312735477     2     2     8     3
 -0.0854701583     2     2     8     7
 0.4728749183     2     2     8     8
 -0.0223745281     2     2     8    12
 -0.0044823979     2     2     9     1
 -0.0512508669     2     2     9     4
 -0.0787083331     2     2     9     6
 0.4704984823     2     2     9     9
 0.0243002839     2     2     9    10
 -0.0106679553     2     2     9    13
 -0.0089690701     2     2    10     1
 -0.1161862353     2     2    10     4
 -0.0404347297     2     2    10     6
 0.0243002839     2     2    10     9
 0.5367373607     2     2    10    10
 0.0107392072     2     2    10    13
 0.1477312778     2     2    11     5
 0.5810816630     2     2    11    11
 -0.1007804445     2     2    12     3
 0.0935058422     2     2    12     7
 -0.0223745281     2     2    12     8
 0.5089267966     2     2    12    12
 0.0007821618     2     2    13     1
 0.0343130894     2     2    13     4
 -0.0216964305     2     2    13     6
 -0.0106679553     2     2    13     9
 0.0107392072     2     2    13    10
 0.4804881598     2     2    13    13
 0.0031559343     2     3     1     7
 -0.0046526346     2     3     1     8
 0.0123632501     2     3     1    12
 -0.0296531514     2     3     3     1
 -0.5247526361     2     3     3     2
 -0.0028645622     2     3     3     4
 0.0778451732     2     3     3     6
 -0.0798121141     2     3     3     9
 0.0202748061     2     3     3    10
 -0.0087142552     2     3     3    13
 -0.0150528242     2     3     4     7
 0.0389952598     2     3     4     8
 0.0081131061     2     3     4    12
 0.0401430959     2     3     6     7
 0.0000672106     2     3     6     8
 0.0255545734     2     3     6    12
 0.0165054975     2     3     7     1
 0.0862518918     2     3     7     2
 -0.0003912925     2     3     7     4
 0.0185804329     2     3     7     6
 0.0078604092     2     3     7     9
 -0.0035546070     2     3     7    10
 0.0098799906     2     3     7    13
 -0.0164452465     2     3     8     1
 -0.0312735477     2     3     8     2
 0.0039463183     2     3     8     4
 0.0056177985     2     3     8     6
 0.0510016176     2     3     8     9
 0.0067723245     2     3     8    10
 0.0145430235     2     3     8    13
 -0.0147770442     2     3     9     7
 0.0538169996     2     3     9     8
 -0.0330701285     2     3     9    12
 0.0003909824     2     3    10     7
 0.0050512331     2     3    10     8
 0.0217234920     2     3    10    12
 0.0332281070     2     3    12     1
 0.1007804445     2     3    12     2
 0.0068098148     2     3    12     4
 -0.0013565199     2     3    12     6
 -0.0043610544     2     3    12     9
 0.0185316601     2     3    12    10
 0.0104750103     2     3    12    13
 0.0011704160     2     3    13     7
 0.0274276827     2     3    13     8
 -0.0016652991     2     3    13    12
 0.0722387164     2     4     1     1
 -0.0068314378     2     4     1     2
 0.0001628270     2     4     1     6