&FCI NORB= 13,NELEC= 10,MS2=0,
 ORBSYM=1,1,1,1,1,1,1,1,1,1,1,1,1
 ISYM=1,
&END
 0.9846230308     1     1     2     2
 -0.0676456061     1     1     2     4
 -0.1284253163     1     1     2     6
 -0.0349985908     1     1     2     9
 0.1106341088     1     1     2    10
 0.0743150146     1     1     2    12
 0.8702115920     1     1     3     3
 -0.1488916364     1     1     3     7
 -0.0783103193     1     1     3     8
 -0.2333627381     1     1     3    13
 -0.0676456061     1     1     4     2
 0.9524226754     1     1     4     4
 -0.0684276273     1     1     4     6
 0.1668961639     1     1     4     9
 0.1628780161     1     1     4    10
 0.0513897896     1     1     4    12
 1.0003472997     1     1     5     5
 0.2946005759     1     1     5    11
 -0.1284253163     1     1     6     2
 -0.0684276273     1     1     6     4
 0.3152194766     1     1     6     6
 -0.0074404318     1     1     6     9
 -0.1150688975     1     1     6    10
 -0.0618707938     1     1     6    12
 -0.1488916364     1     1     7     3
 0.2836073494     1     1     7     7
 0.0650421048     1     1     7     8
 0.1473418793     1     1     7    13
 -0.0783103193     1     1     8     3
 0.0650421048     1     1     8     7
 0.3887818630     1     1     8     8
 0.0792822386     1     1     8    13
 -0.0349985908     1     1     9     2
 0.1668961639     1     1     9     4
 -0.0074404318     1     1     9     6
 0.3820781419     1     1     9     9
 0.0348774034     1     1     9    10
 0.0247143752     1     1     9    12
 0.1106341088     1     1    10     2
 0.1628780161     1     1    10     4
 -0.1150688975     1     1    10     6
 0.0348774034     1     1    10     9
 0.4564737831     1     1    10    10
 0.0437089821     1     1    10    12
 0.2946005759     1     1    11     5
 0.5389680468     1     1    11    11
 0.0743150146     1     1    12     2
 0.0513897896     1     1    12     4
 -0.0618707938     1     1    12     6
 0.0247143752     1     1    12     9
 0.0437089821     1     1    12    10
 0.3780164997     1     1    12    12
 -0.2333627381     1     1    13     3
 0.1473418793     1     1    13     7
 0.0792822386     1     1    13     8
 0.4774000870     1     1    13    13
 -0.9846230308     1     2     2     1
 0.0069579776     1     2     2     4
 -0.0013256652     1     2     2     6
 0.0030180817     1     2     2     9
 0.0036379346     1     2     2    10
 0.0015712635     1     2     2    12
 0.0308723365     1     2     3     3
 -0.0108932375     1     2     3     7
 -0.0087223701     1     2     3     8
 -0.0212064030     1     2     3    13
 0.0676456061     1     2     4     1
 0.0359053885     1     2     4     4
 -0.0063803610     1     2     4     6
 0.0118216218     1     2     4     9
 0.0150721961     1     2     4    10
 0.0065014727     1     2     4    12
 0.0409245285     1     2     5     5
 0.0242958705     1     2     5    11
 0.1284253163     1     2     6     1
 -0.0062281718     1     2     6     4
 0.0013700355     1     2     6     6
 -0.0022067305     1     2     6     9
 -0.0032802831     1     2     6    10
 -0.0014194002     1     2     6    12
 -0.0081694466     1     2     7     3
 0.0034509702     1     2     7     7
 0.0027058763     1     2     7     8
 0.0069484207     1     2     7    13
 -0.0058757410     1     2     8     3
 0.0023843712     1     2     8     7
 0.0019965169     1     2     8     8
 0.0044167067     1     2     8    13
 0.0349985908     1     2     9     1
 0.0087894229     1     2     9     4
 -0.0015064744     1     2     9     6
 0.0040055929     1     2     9     9
 0.0047137709     1     2     9    10
 0.0014847303     1     2     9    12
 -0.1106341088     1     2    10     1
 0.0124978373     1     2    10     4
 -0.0026954596     1     2    10     6
 0.0053737176     1     2    10     9
 0.0064614152     1     2    10    10
 0.0025987330     1     2    10    12
 0.0180359919     1     2    11     5
 0.0137464175     1     2    11    11
 -0.0743150146     1     2    12     1
 0.0049892806     1     2    12     4
 -0.0010599244     1     2    12     6
 0.0015980476     1     2    12     9
 0.0023625526     1     2    12    10
 0.0008684843     1     2    12    12
 -0.0144733251     1     2    13     3
 0.0063447107     1     2    13     7
 0.0045805515     1     2    13     8
 0.0122937155     1     2    13    13
 -0.0020777515     1     3     2     7
 -0.0023965925     1     3     2     8
 -0.0055913439     1     3     2    13
 -0.8702115920     1     3     3     1
 -0.0308723365     1     3     3     2
 0.0105112226     1     3     3     4
 0.0041513735     1     3     3     6
 0.0027980314     1     3     3     9
 0.0006524557     1     3     3    10
 -0.0042676870     1     3     3    12
 -0.0010246641     1     3     4     7
 -0.0040689002     1     3     4     8
 -0.0014047439     1     3     4    13
 -0.0018489743     1     3     6     7
 0.0004302792     1     3     6     8
 -0.0016617499     1     3     6    13
 0.1488916364     1     3     7     1
 0.0081694466     1     3     7     2
 -0.0028824504     1     3     7     4
 -0.0036579050     1     3     7     6
 -0.0012836600     1     3     7     9
 0.0019471617     1     3     7    10
 0.0011807748     1     3     7    12
 0.0783103193     1     3     8     1
 0.0058757410     1     3     8     2
 -0.0018769443     1     3     8     4
 -0.0017635514     1     3     8     6
 0.0010246093     1     3     8     9
 0.0040524590     1     3     8    10
 0.0027120456     1     3     8    12
 -0.0009071680     1     3     9     7
 0.0000482678     1     3     9     8
 -0.0028619112     1     3     9    13
 0.0014234450     1     3    10     7
 0.0018329171     1     3    10     8
 0.0032605346     1     3    10    13
 -0.0006628241     1     3    12     7
 0.0005985333     1     3    12     8
 -0.0004757823     1     3    12    13
 0.2333627381     1     3    13     1
 0.0144733251     1     3    13     2
 -0.0050128148     1     3    13     4
 -0.0052385062     1     3    13     6
 -0.0036077031     1     3    13     9
 0.0043693830     1     3    13    10
 0.0031349839     1     3    13    12
 0.0676456061     1     4     2     1
 -0.0069579776     1     4     2     2
 0.0003263564     1     4     2     6
 0.0023283144     1     4     2     9
 0.0016087392     1     4     2    10
 0.0011249058     1     4     2    12
 -0.0105112226     1     4     3     3
 0.0020143802     1     4     3     7
 -0.0021298263     1     4     3     8
 0.0039275390     1     4     3    13
 -0.9524226754     1     4     4     1
 -0.0359053885     1     4     4     2
 0.0082624067     1     4     4     6
 0.0006147373     1     4     4     9
 -0.0102822167     1     4     4    10
 -0.0021085800     1     4     4    12
 -0.0137188111     1     4     5     5
 -0.0078212163     1     4     5    11
 0.0684276273     1     4     6     1
 0.0062281718     1     4     6     2
 -0.0033095852     1     4     6     6
 0.0014202685     1     4     6     9
 0.0035923024     1     4     6    10
 0.0014657020     1     4     6    12
 0.0028824504     1     4     7     3
 -0.0021141341     1     4     7     7
 -0.0009629780     1     4     7     8
 -0.0024527956     1     4     7    13
 0.0018769443     1     4     8     3
 -0.0021838935     1     4     8     7
 -0.0012881467     1     4     8     8
 -0.0053138908     1     4     8    13
 -0.1668961639     1     4     9     1
 -0.0087894229     1     4     9     2
 0.0042713188     1     4     9     6
 0.0010192959     1     4     9     9
 -0.0019232871     1     4     9    10
 -0.0032440771     1     4     9    12
 -0.1628780161     1     4    10     1
 -0.0124978373     1     4    10     2
 0.0052509586     1     4    10     6
 0.0017718894     1     4    10     9
 -0.0068504866     1     4    10    10
 -0.0030972657     1     4    10    12
 -0.0063355589     1     4    11     5
 -0.0045463789     1     4    11    11
 -0.0513897896     1     4    12     1
 -0.0049892806     1     4    12     2
 0.0026379490     1     4    12     6
 -0.0025031315     1     4    12     9
 -0.0041525730     1     4    12    10
 -0.0032215321     1     4    12    12
 0.0050128148     1     4    13     3
 -0.0022499879     1     4    13     7
 -0.0028074832     1     4    13     8
 -0.0041890670     1     4    13    13
 0.0048429369     1     5     2    11
 -0.0010929150     1     5     4    11
 -1.0003472997     1     5     5     1
 -0.0409245285     1     5     5     2
 0.0137188111     1     5     5     4
 0.0078794519     1     5     5     6
 0.0075242199     1     5     5     9
 -0.0081428156     1     5     5    10
 -0.0061593667     1     5     5    12
 0.0021622319     1     5     6    11
 -0.0014102241     1     5     9    11
 0.0011758036     1     5    10    11
 -0.2946005759     1     5    11     1
 -0.0180359919     1     5    11     2
 0.0063355589     1     5    11     4
 0.0070271724     1     5    11     6
 0.0030034789     1     5    11     9
 -0.0040242163     1     5    11    10
 -0.0033406019     1     5    11    12
 0.0004991960     1     5    12    11
 0.1284253163     1     6     2     1
 0.0013256652     1     6     2     2
 -0.0003263564     1     6     2     4
 -0.0007070186     1     6     2     9
 -0.0006099843     1     6     2    10
 -0.0003755484     1     6     2    12
 -0.0041513735     1     6     3     3
 0.0017952100     1     6     3     7
 0.0022007885     1     6     3     8
 0.0035974366     1     6     3    13
 0.0684276273     1     6     4     1
 0.0063803610     1     6     4     2
 -0.0082624067     1     6     4     4
 -0.0028777407     1     6     4     9
 -0.0017042754     1     6     4    10
 -0.0011806037     1     6     4    12
 -0.0078794519     1     6     5     5
 -0.0048115214     1     6     5    11
 -0.3152194766     1     6     6     1
 -0.0013700355     1     6     6     2
 0.0033095852     1     6     6     4
 0.0008490855     1     6     6     9
 0.0008146150     1     6     6    10
 0.0003311842     1     6     6    12
 0.0036579050     1     6     7     3
 -0.0011664521     1     6     7     7
 -0.0009987830     1     6     7     8
 -0.0026002498     1     6     7    13
 0.0017635514     1     6     8     3
 -0.0003737244     1     6     8     7
 -0.0003407434     1     6     8     8
 -0.0004868680     1     6     8    13
 0.0074404318     1     6     9     1
 0.0015064744     1     6     9     2
 -0.0042713188     1     6     9     4
 -0.0017708452     1     6     9     9
 -0.0016914907     1     6     9    10
 -0.0001290548     1     6     9    12
 0.1150688975     1     6    10     1
 0.0026954596     1     6    10     2
 -0.0052509586     1     6    10     4
 -0.0022911519     1     6    10     9
 -0.0010787465     1     6    10    10
 -0.0003737066     1     6    10    12
 -0.0070271724     1     6    11     5
 -0.0045669744     1     6    11    11
 0.0618707938     1     6    12     1
 0.0010599244     1     6    12     2
 -0.0026379490     1     6    12     4
 -0.0003881509     1     6    12     9
 -0.0003817701     1     6    12    10
 0.0001993570     1     6    12    12
 0.0052385062     1     6    13     3
 -0.0019554417     1     6    13     7
 -0.0012221791     1     6    13     8
 -0.0038159092     1     6    13    13
 0.0020777515     1     7     2     3
 0.0003170583     1     7     2     8
 0.0005704273     1     7     2    13
 0.1488916364     1     7     3     1
 0.0108932375     1     7     3     2
 -0.0020143802     1     7     3     4
 -0.0017952100     1     7     3     6
 -0.0004018786     1     7     3     9
 0.0004847455     1     7     3    10
 0.0018246817     1     7     3    12
 0.0010246641     1     7     4     3
 0.0012196889     1     7     4     8
 -0.0001852731     1     7     4    13
 0.0018489743     1     7     6     3
 -0.0006241522     1     7     6     8
 -0.0006415250     1     7     6    13
 -0.2836073494     1     7     7     1
 -0.0034509702     1     7     7     2
 0.0021141341     1     7     7     4
 0.0011664521     1     7     7     6
 0.0008009511     1     7     7     9
 -0.0003366560     1     7     7    10
 -0.0002940916     1     7     7    12
 -0.0650421048     1     7     8     1
 -0.0023843712     1     7     8     2
 0.0021838935     1     7     8     4
 0.0003737244     1     7     8     6
 0.0001354217     1     7     8     9
 -0.0008173743     1     7     8    10
 -0.0007299952     1     7     8    12
 0.0009071680     1     7     9     3
 -0.0002570248     1     7     9     8
 0.0003951936     1     7     9    13
 -0.0014234450     1     7    10     3
 -0.0002838831     1     7    10     8
 -0.0001897510     1     7    10    13
 0.0006628241     1     7    12     3
 -0.0003832533     1     7    12     8
 -0.0002741611     1     7    12    13
 -0.1473418793     1     7    13     1
 -0.0063447107     1     7    13     2
 0.0022499879     1     7    13     4
 0.0019554417     1     7    13     6
 0.0014050452     1     7    13     9
 -0.0015854799     1     7    13    10
 -0.0011649089     1     7    13    12
 0.0023965925     1     8     2     3
 -0.0003170583     1     8     2     7
 -0.0001806779     1     8     2    13
 0.0783103193     1     8     3     1
 0.0087223701     1     8     3     2
 0.0021298263     1     8     3     4
 -0.0022007885     1     8     3     6
 0.0009518178     1     8     3     9
 0.0022210729     1     8     3    10
 0.0021072060     1     8     3    12
 0.0040689002     1     8     4     3
 -0.0012196889     1     8     4     7
 -0.0024918171     1     8     4    13
 -0.0004302792     1     8     6     3
 0.0006241522     1     8     6     7
 0.0007379648     1     8     6    13
 -0.0650421048     1     8     7     1
 -0.0027058763     1     8     7     2
 0.0009629780     1     8     7     4
 0.0009987830     1     8     7     6
 0.0003907763     1     8     7     9
 -0.0005369176     1     8     7    10
 -0.0003488458     1     8     7    12
 -0.3887818630     1     8     8     1
 -0.0019965169     1     8     8     2
 0.0012881467     1     8     8     4
 0.0003407434     1     8     8     6
 -0.0000251830     1     8     8     9
 -0.0007748177     1     8     8    10
 -0.0005876804     1     8     8    12
 -0.0000482678     1     8     9     3
 0.0002570248     1     8     9     7
 0.0007782017     1     8     9    13
 -0.0018329171     1     8    10     3
 0.0002838831     1     8    10     7
 0.0003959973     1     8    10    13
 -0.0005985333     1     8    12     3
 0.0003832533     1     8    12     7
 0.0005160886     1     8    12    13
 -0.0792822386     1     8    13     1
 -0.0045805515     1     8    13     2
 0.0028074832     1     8    13     4
 0.0012221791     1     8    13     6
 0.0014268255     1     8    13     9
 -0.0006457458     1     8    13    10
 -0.0006677793     1     8    13    12
 0.0349985908     1     9     2     1
 -0.0030180817     1     9     2     2
 -0.0023283144     1     9     2     4
 0.0007070186     1     9     2     6
 -0.0006865680     1     9     2    10
 -0.0001379716     1     9     2    12
 -0.0027980314     1     9     3     3
 0.0004018786     1     9     3     7
 -0.0009518178     1     9     3     8
 0.0008309297     1     9     3    13
 -0.1668961639     1     9     4     1
 -0.0118216218     1     9     4     2
 -0.0006147373     1     9     4     4
 0.0028777407     1     9     4     6
 -0.0037234432     1     9     4    10
 -0.0007580366     1     9     4    12
 -0.0075242199     1     9     5     5
 -0.0044525295     1     9     5    11
 0.0074404318     1     9     6     1
 0.0022067305     1     9     6     2
 -0.0014202685     1     9     6     4
 -0.0008490855     1     9     6     6
 0.0006019188     1     9     6    10
 0.0002594204     1     9     6    12
 0.0012836600     1     9     7     3
 -0.0008009511     1     9     7     7
 -0.0003907763     1     9     7     8
 -0.0010083461     1     9     7    13
 -0.0010246093     1     9     8     3
 -0.0001354217     1     9     8     7
 0.0000251830     1     9     8     8
 -0.0006444850     1     9     8    13
 -0.3820781419     1     9     9     1
 -0.0040055929     1     9     9     2
 -0.0010192959     1     9     9     4
 0.0017708452     1     9     9     6
 -0.0012854641     1     9     9    10
 -0.0013799876     1     9     9    12
 -0.0348774034     1     9    10     1
 -0.0053737176     1     9    10     2
 -0.0017718894     1     9    10     4
 0.0022911519     1     9    10     6
 -0.0033026104     1     9    10    10
 -0.0014769858     1     9    10    12
 -0.0030034789     1     9    11     5
 -0.0019911753     1     9    11    11
 -0.0247143752     1     9    12     1
 -0.0015980476     1     9    12     2
 0.0025031315     1     9    12     4
 0.0003881509     1     9    12     6
 -0.0002849887     1     9    12    10
 -0.0006250977     1     9    12    12
 0.0036077031     1     9    13     3
 -0.0014050452     1     9    13     7
 -0.0014268255     1     9    13     8
 -0.0026539060     1     9    13    13
 -0.1106341088     1    10     2     1
 -0.0036379346     1    10     2     2
 -0.0016087392     1    10     2     4
 0.0006099843     1    10     2     6
 0.0006865680     1    10     2     9
 0.0002286653     1    10     2    12
 -0.0006524557     1    10     3     3
 -0.0004847455     1    10     3     7
 -0.0022210729     1    10     3     8
 -0.0010714850     1    10     3    13
 -0.1628780161     1    10     4     1
 -0.0150721961     1    10     4     2
 0.0102822167     1    10     4     4
 0.0017042754     1    10     4     6
 0.0037234432     1    10     4     9
 0.0010285077     1    10     4    12
 0.0081428156     1    10     5     5
 0.0050753771     1    10     5    11
 0.1150688975     1    10     6     1
 0.0032802831     1    10     6     2
 -0.0035923024     1    10     6     4
 -0.0008146150     1    10     6     6
 -0.0006019188     1    10     6     9
 0.0000076830     1    10     6    12
 -0.0019471617     1    10     7     3
 0.0003366560     1    10     7     7
 0.0005369176     1    10     7     8
 0.0013953313     1    10     7    13
 -0.0040524590     1    10     8     3
 0.0008173743     1    10     8     7
 0.0007748177     1    10     8     8
 0.0010414064     1    10     8    13
 -0.0348774034     1    10     9     1
 -0.0047137709     1    10     9     2
 0.0019232871     1    10     9     4
 0.0016914907     1    10     9     6
 0.0012854641     1    10     9     9
 -0.0011910418     1    10     9    12
 -0.4564737831     1    10    10     1
 -0.0064614152     1    10    10     2
 0.0068504866     1    10    10     4
 0.0010787465     1    10    10     6
 0.0033026104     1    10    10     9
 -0.0001662703     1    10    10    12
 0.0040242163     1    10    11     5
 0.0027186218     1    10    11    11
 -0.0437089821     1    10    12     1
 -0.0023625526     1    10    12     2
 0.0041525730     1    10    12     4
 0.0003817701     1    10    12     6
 0.0002849887     1    10    12     9
 -0.0007280152     1    10    12    12
 -0.0043693830     1    10    13     3
 0.0015854799     1    10    13     7
 0.0006457458     1    10    13     8
 0.0031375475     1    10    13    13
 -0.0048429369     1    11     2     5
 0.0010929150     1    11     4     5
 -0.2946005759     1    11     5     1
 -0.0242958705     1    11     5     2
 0.0078212163     1    11     5     4
 0.0048115214     1    11     5     6
 0.0044525295     1    11     5     9
 -0.0050753771     1    11     5    10
 -0.0037813757     1    11     5    12
 -0.0021622319     1    11     6     5
 0.0014102241     1    11     9     5
 -0.0011758036     1    11    10     5
 -0.5389680468     1    11    11     1
 -0.0137464175     1    11    11     2
 0.0045463789     1    11    11     4
 0.0045669744     1    11    11     6
 0.0019911753     1    11    11     9
 -0.0027186218     1    11    11    10
 -0.0022260203     1    11    11    12
 -0.0004991960     1    11    12     5
 -0.0743150146     1    12     2     1
 -0.0015712635     1    12     2     2
 -0.0011249058     1    12     2     4
 0.0003755484     1    12     2     6
 0.0001379716     1    12     2     9
 -0.0002286653     1    12     2    10
 0.0042676870     1    12     3     3
 -0.0018246817     1    12     3     7
 -0.0021072060     1    12     3     8
 -0.0035983990     1    12     3    13
 -0.0513897896     1    12     4     1
 -0.0065014727     1    12     4     2
 0.0021085800     1    12     4     4
 0.0011806037     1    12     4     6
 0.0007580366     1    12     4     9
 -0.0010285077     1    12     4    10
 0.0061593667     1    12     5     5
 0.0037813757     1    12     5    11
 0.0618707938     1    12     6     1
 0.0014194002     1    12     6     2
 -0.0014657020     1    12     6     4
 -0.0003311842     1    12     6     6
 -0.0002594204     1    12     6     9
 -0.0000076830     1    12     6    10
 -0.0011807748     1    12     7     3
 0.0002940916     1    12     7     7
 0.0003488458     1    12     7     8
 0.0008961368     1    12     7    13
 -0.0027120456     1    12     8     3
 0.0007299952     1    12     8     7
 0.0005876804     1    12     8     8
 0.0011853809     1    12     8    13
 -0.0247143752     1    12     9     1
 -0.0014847303     1    12     9     2
 0.0032440771     1    12     9     4
 0.0001290548     1    12     9     6
 0.0013799876     1    12     9     9
 0.0011910418     1    12     9    10
 -0.0437089821     1    12    10     1
 -0.0025987330     1    12    10     2
 0.0030972657     1    12    10     4
 0.0003737066     1    12    10     6
 0.0014769858     1    12    10     9
 0.0001662703     1    12    10    10
 0.0033406019     1    12    11     5
 0.0022260203     1    12    11    11
 -0.3780164997     1    12    12     1
 -0.0008684843     1    12    12     2
 0.0032215321     1    12    12     4
 -0.0001993570     1    12    12     6
 0.0006250977     1    12    12     9
 0.0007280152     1    12    12    10
 -0.0031349839     1    12    13     3
 0.0011649089     1    12    13     7
 0.0006677793     1    12    13     8
 0.0022913348     1    12    13    13
 0.0055913439     1    13     2     3
 -0.0005704273     1    13     2     7
 0.0001806779     1    13     2     8
 0.2333627381     1    13     3     1
 0.0212064030     1    13     3     2
 -0.0039275390     1    13     3     4
 -0.0035974366     1    13     3     6
 -0.0008309297     1    13     3     9
 0.0010714850     1    13     3    10
 0.0035983990     1    13     3    12
 0.0014047439     1    13     4     3
 0.0001852731     1    13     4     7
 0.0024918171     1    13     4     8
 0.0016617499     1    13     6     3
 0.0006415250     1    13     6     7
 -0.0007379648     1    13     6     8
 -0.1473418793     1    13     7     1
 -0.0069484207     1    13     7     2
 0.0024527956     1    13     7     4
 0.0026002498     1    13     7     6
 0.0010083461     1    13     7     9
 -0.0013953313     1    13     7    10
 -0.0008961368     1    13     7    12
 -0.0792822386     1    13     8     1
 -0.0044167067     1    13     8     2
 0.0053138908     1    13     8     4
 0.0004868680     1    13     8     6
 0.0006444850     1    13     8     9
 -0.0010414064     1    13     8    10
 -0.0011853809     1    13     8    12
 0.0028619112     1    13     9     3
 -0.0003951936     1    13     9     7
 -0.0007782017     1    13     9     8
 -0.0032605346     1    13    10     3
 0.0001897510     1    13    10     7
 -0.0003959973     1    13    10     8
 0.0004757823     1    13    12     3
 0.0002741611     1    13    12     7
 -0.0005160886     1    13    12     8
 -0.4774000870     1    13    13     1
 -0.0122937155     1    13    13     2
 0.0041890670     1    13    13     4
 0.0038159092     1    13    13     6
 0.0026539060     1    13    13     9
 -0.0031375475     1    13    13    10
 -0.0022913348     1    13    13    12
 -0.9846230308     2     1     1     2
 0.0676456061     2     1     1     4
 0.1284253163     2     1     1     6
 0.0349985908     2     1     1     9
 -0.1106341088     2     1     1    10
 -0.0743150146     2     1     1    12
 0.0308723365     2     1     3     3
 -0.0081694466     2     1     3     7
 -0.0058757410     2     1     3     8
 -0.0144733251     2     1     3    13
 0.0069579776     2     1     4     2
 0.0359053885     2     1     4     4
 -0.0062281718     2     1     4     6
 0.0087894229     2     1     4     9
 0.0124978373     2     1     4    10
 0.0049892806     2     1     4    12
 0.0409245285     2     1     5     5
 0.0180359919     2     1     5    11
 -0.0013256652     2     1     6     2
 -0.0063803610     2     1     6     4
 0.0013700355     2     1     6     6
 -0.0015064744     2     1     6     9
 -0.0026954596     2     1     6    10
 -0.0010599244     2     1     6    12
 -0.0108932375     2     1     7     3
 0.0034509702     2     1     7     7
 0.0023843712     2     1     7     8
 0.0063447107     2     1     7    13
 -0.0087223701     2     1     8     3
 0.0027058763     2     1     8     7
 0.0019965169     2     1     8     8
 0.0045805515     2     1     8    13
 0.0030180817     2     1     9     2
 0.0118216218     2     1     9     4
 -0.0022067305     2     1     9     6
 0.0040055929     2     1     9     9
 0.0053737176     2     1     9    10
 0.0015980476     2     1     9    12
 0.0036379346     2     1    10     2
 0.0150721961     2     1    10     4
 -0.0032802831     2     1    10     6
 0.0047137709     2     1    10     9
 0.0064614152     2     1    10    10
 0.0023625526     2     1    10    12
 0.0242958705     2     1    11     5
 0.0137464175     2     1    11    11
 0.0015712635     2     1    12     2
 0.0065014727     2     1    12     4
 -0.0014194002     2     1    12     6
 0.0014847303     2     1    12     9
 0.0025987330     2     1    12    10
 0.0008684843     2     1    12    12
 -0.0212064030     2     1    13     3
 0.0069484207     2     1    13     7
 0.0044167067     2     1    13     8
 0.0122937155     2     1    13    13
 0.9846230308     2     2     1     1
 -0.0069579776     2     2     1     4
 0.0013256652     2     2     1     6
 -0.0030180817     2     2     1     9
 -0.0036379346     2     2     1    10
 -0.0015712635     2     2     1    12
 0.5283003748     2     2     3     3
 -0.0616854592     2     2     3     7
 -0.0162690807     2     2     3     8
 -0.0834589664     2     2     3    13
 -0.0069579776     2     2     4     1
 0.5511840635     2     2     4     4
 -0.0299999721     2     2     4     6
 0.0678106304     2     2     4     9
 0.0625559765     2     2     4    10
 0.0116058136     2     2     4    12
 0.5788098843     2     2     5     5
 0.1157224399     2     2     5    11
 0.0013256652     2     2     6     1
 -0.0299999721     2     2     6     4
 0.2792280330     2     2     6     6
 -0.0082891302     2     2     6     9
 -0.0677776065     2     2     6    10
 -0.0355163478     2     2     6    12
 -0.0616854592     2     2     7     3
 0.2555009509     2     2     7     7
 0.0428532971     2     2     7     8
 0.0866913848     2     2     7    13
 -0.0162690807     2     2     8     3
 0.0428532971     2     2     8     7
 0.3577727442     2     2     8     8
 0.0440228820     2     2     8    13
 -0.0030180817     2     2     9     1
 0.0678106304     2     2     9     4
 -0.0082891302     2     2     9     6
 0.3319350819     2     2     9     9
 -0.0012188811     2     2     9    10
 0.0244107746     2     2     9    12
 -0.0036379346     2     2    10     1
 0.0625559765     2     2    10     4
 -0.0677776065     2     2    10     6
 -0.0012188811     2     2    10     9
 0.3774119634     2     2    10    10
 0.0127161893     2     2    10    12
 0.1157224399     2     2    11     5
 0.4083034155     2     2    11    11
 -0.0015712635     2     2    12     1
 0.0116058136     2     2    12     4
 -0.0355163478     2     2    12     6
 0.0244107746     2     2    12     9
 0.0127161893     2     2    12    10
 0.3563899979     2     2    12    12
 -0.0834589664     2     2    13     3
 0.0866913848     2     2    13     7
 0.0440228820     2     2    13     8
 0.3643730075     2     2    13    13
 0.0020777515     2     3     1     7
 0.0023965925     2     3     1     8
 0.0055913439     2     3     1    13
 -0.0308723365     2     3     3     1
 -0.5283003748     2     3     3     2
 0.0018163835     2     3     3     4
 0.0582595012     2     3     3     6
 0.0213285942     2     3     3     9
 -0.0651641611     2     3     3    10
 -0.0143394347     2     3     3    12
 0.0082535457     2     3     4     7
 0.0274345125     2     3     4     8
 0.0103275971     2     3     4    13
 0.0297775648     2     3     6     7
 -0.0004563612     2     3     6     8
 0.0223633281     2     3     6    13
 0.0108932375     2     3     7     1
 0.0616854592     2     3     7     2
 0.0003555316     2     3     7     4
 0.0183724624     2     3     7     6
 0.0011701895     2     3     7     9
 -0.0035467135     2     3     7    10
 0.0106064773     2     3     7    12
 0.0087223701     2     3     8     1
 0.0162690807     2     3     8     2
 0.0040944036     2     3     8     4
 -0.0025766792     2     3     8     6
 -0.0153615889     2     3     8     9
 -0.0274622733     2     3     8    10
 -0.0142533798     2     3     8    12
 0.0055752342     2     3     9     7
 -0.0119856171     2     3     9     8
 0.0236983532     2     3     9    13
 -0.0158429623     2     3    10     7
 -0.0267657372     2     3    10     8
 -0.0336109249     2     3    10    13
 0.0055475386     2     3    12     7
 -0.0184210887     2     3    12     8
 -0.0054707755     2     3    12    13
 0.0212064030     2     3    13     1
 0.0834589664     2     3    13     2
 -0.0010825550     2     3    13     4
 0.0065886517     2     3    13     6
 0.0175266941     2     3    13     9
 -0.0171613733     2     3    13    10
 0.0030144404     2     3    13    12
 -0.0676456061     2     4     1     1
 0.0069579776     2     4     1     2
 -0.0003263564     2     4     1     6