&FCI NORB= 16,NELEC= 10,MS2=0,
 ORBSYM=1,1,1,1,1,1,1,1,1,1,1,1,1,1,1,1
 ISYM=1,
&END
 1.0065919864     1     1     2     2
 -0.0616015105     1     1     2     3
 -0.0449514800     1     1     2     5
 -0.0628122653     1     1     2     6
 0.1066855137     1     1     2     7
 0.0081756469     1     1     2     8
 0.0623654965     1     1     2     9
 0.0427116069     1     1     2    11
 0.0603264192     1     1     2    12
 0.0454138188     1     1     2    14
 -0.1247484068     1     1     2    15
 -0.0616015105     1     1     3     2
 0.9180122371     1     1     3     3
 0.0597066558     1     1     3     5
 0.0512506511     1     1     3     6
 0.1115026607     1     1     3     7
 0.0008705019     1     1     3     8
 -0.0147258031     1     1     3     9
 0.2431949126     1     1     3    11
 -0.0567102850     1     1     3    12
 0.0161511643     1     1     3    14
 -0.0074662616     1     1     3    15
 1.0215673018     1     1     4     4
 0.1804017738     1     1     4    10
 0.2347856298     1     1     4    13
 -0.0641251138     1     1     4    16
 -0.0449514800     1     1     5     2
 0.0597066558     1     1     5     3
 0.6975771387     1     1     5     5
 -0.3111949847     1     1     5     6
 -0.0375532706     1     1     5     7
 0.0381901435     1     1     5     8
 -0.0366422623     1     1     5     9
 0.0692555799     1     1     5    11
 0.0789275245     1     1     5    12
 -0.2153279962     1     1     5    14
 0.0044580542     1     1     5    15
 -0.0628122653     1     1     6     2
 0.0512506511     1     1     6     3
 -0.3111949847     1     1     6     5
 0.5209170054     1     1     6     6
 0.0195752879     1     1     6     7
 -0.0818651111     1     1     6     8
 0.0113685228     1     1     6     9
 -0.0167213393     1     1     6    11
 -0.1128447021     1     1     6    12
 0.2071072749     1     1     6    14
 0.0681437500     1     1     6    15
 0.1066855137     1     1     7     2
 0.1115026607     1     1     7     3
 -0.0375532706     1     1     7     5
 0.0195752879     1     1     7     6
 0.3109213530     1     1     7     7
 -0.0149247717     1     1     7     8
 0.0421993716     1     1     7     9
 0.1130809810     1     1     7    11
 0.0021200969     1     1     7    12
 0.0664213838     1     1     7    14
 -0.0616741095     1     1     7    15
 0.0081756469     1     1     8     2
 0.0008705019     1     1     8     3
 0.0381901435     1     1     8     5
 -0.0818651111     1     1     8     6
 -0.0149247717     1     1     8     7
 0.2193673734     1     1     8     8
 -0.0073255011     1     1     8     9
 0.0123225932     1     1     8    11
 0.0073269094     1     1     8    12
 -0.0344992749     1     1     8    14
 -0.0333974396     1     1     8    15
 0.0623654965     1     1     9     2
 -0.0147258031     1     1     9     3
 -0.0366422623     1     1     9     5
 0.0113685228     1     1     9     6
 0.0421993716     1     1     9     7
 -0.0073255011     1     1     9     8
 0.3336572520     1     1     9     9
 0.0287236870     1     1     9    11
 0.0267096963     1     1     9    12
 0.0544126352     1     1     9    14
 -0.0215162329     1     1     9    15
 0.1804017738     1     1    10     4
 0.3476208159     1     1    10    10
 0.1195363669     1     1    10    13
 -0.0517410716     1     1    10    16
 0.0427116069     1     1    11     2
 0.2431949126     1     1    11     3
 0.0692555799     1     1    11     5
 -0.0167213393     1     1    11     6
 0.1130809810     1     1    11     7
 0.0123225932     1     1    11     8
 0.0287236870     1     1    11     9
 0.4974423261     1     1    11    11
 0.0009177788     1     1    11    12
 -0.0253813785     1     1    11    14
 -0.0264743071     1     1    11    15
 0.0603264192     1     1    12     2
 -0.0567102850     1     1    12     3
 0.0789275245     1     1    12     5
 -0.1128447021     1     1    12     6
 0.0021200969     1     1    12     7
 0.0073269094     1     1    12     8
 0.0267096963     1     1    12     9
 0.0009177788     1     1    12    11
 0.3491659220     1     1    12    12
 -0.0867058279     1     1    12    14
 -0.0077459141     1     1    12    15
 0.2347856298     1     1    13     4
 0.1195363669     1     1    13    10
 0.4534580231     1     1    13    13
 -0.0088593748     1     1    13    16
 0.0454138188     1     1    14     2
 0.0161511643     1     1    14     3
 -0.2153279962     1     1    14     5
 0.2071072749     1     1    14     6
 0.0664213838     1     1    14     7
 -0.0344992749     1     1    14     8
 0.0544126352     1     1    14     9
 -0.0253813785     1     1    14    11
 -0.0867058279     1     1    14    12
 0.5137141073     1     1    14    14
 -0.0183965038     1     1    14    15
 -0.1247484068     1     1    15     2
 -0.0074662616     1     1    15     3
 0.0044580542     1     1    15     5
 0.0681437500     1     1    15     6
 -0.0616741095     1     1    15     7
 -0.0333974396     1     1    15     8
 -0.0215162329     1     1    15     9
 -0.0264743071     1     1    15    11
 -0.0077459141     1     1    15    12
 -0.0183965038     1     1    15    14
 0.3485078682     1     1    15    15
 -0.0641251138     1     1    16     4
 -0.0517410716     1     1    16    10
 -0.0088593748     1     1    16    13
 0.3488329370     1     1    16    16
 -1.0065919864     1     2     2     1
 0.0064913425     1     2     2     3
 0.0002040751     1     2     2     5
 0.0007854092     1     2     2     6
 0.0020205708     1     2     2     7
 -0.0000394942     1     2     2     8
 0.0001841203     1     2     2     9
 0.0050132824     1     2     2    11
 -0.0009356213     1     2     2    12
 0.0009215547     1     2     2    14
 -0.0006119897     1     2     2    15
 0.0616015105     1     2     3     1
 0.0348475427     1     2     3     3
 0.0034188290     1     2     3     5
 0.0022267462     1     2     3     6
 0.0093284068     1     2     3     7
 -0.0000050815     1     2     3     8
 0.0012536409     1     2     3     9
 0.0218356392     1     2     3    11
 -0.0031453243     1     2     3    12
 0.0025686296     1     2     3    14
 -0.0025015841     1     2     3    15
 0.0440851356     1     2     4     4
 0.0146506383     1     2     4    10
 0.0206332860     1     2     4    13
 -0.0050457741     1     2     4    16
 0.0449514800     1     2     5     1
 0.0028978783     1     2     5     3
 0.0239108861     1     2     5     5
 -0.0179360908     1     2     5     6
 -0.0015947360     1     2     5     7
 0.0034603615     1     2     5     8
 -0.0023560812     1     2     5     9
 0.0052711074     1     2     5    11
 0.0075834060     1     2     5    12
 -0.0181241109     1     2     5    14
 -0.0014480547     1     2     5    15
 0.0628122653     1     2     6     1
 0.0015640551     1     2     6     3
 -0.0159725681     1     2     6     5
 0.0151285186     1     2     6     6
 0.0024205371     1     2     6     7
 -0.0029276060     1     2     6     8
 0.0019051218     1     2     6     9
 -0.0016445409     1     2     6    11
 -0.0065969282     1     2     6    12
 0.0151286738     1     2     6    14
 0.0010312897     1     2     6    15
 -0.1066855137     1     2     7     1
 0.0081888252     1     2     7     3
 -0.0012325815     1     2     7     5
 0.0025067532     1     2     7     6
 0.0026237597     1     2     7     7
 -0.0003915767     1     2     7     8
 0.0006039537     1     2     7     9
 0.0055175841     1     2     7    11
 -0.0015536679     1     2     7    12
 0.0026834433     1     2     7    14
 -0.0006692061     1     2     7    15
 -0.0081756469     1     2     8     1
 0.0000688138     1     2     8     3
 0.0029197221     1     2     8     5
 -0.0027782757     1     2     8     6
 -0.0003607797     1     2     8     7
 0.0006711036     1     2     8     8
 -0.0004327421     1     2     8     9
 0.0006215508     1     2     8    11
 0.0011808867     1     2     8    12
 -0.0028361711     1     2     8    14
 -0.0002388864     1     2     8    15
 -0.0623654965     1     2     9     1
 0.0010771403     1     2     9     3
 -0.0018112301     1     2     9     5
 0.0016626643     1     2     9     6
 0.0005793352     1     2     9     7
 -0.0004015001     1     2     9     8
 0.0004487552     1     2     9     9
 -0.0001136134     1     2     9    11
 -0.0006093286     1     2     9    12
 0.0016928742     1     2     9    14
 -0.0000341194     1     2     9    15
 0.0112735328     1     2    10     4
 0.0048603643     1     2    10    10
 0.0064340905     1     2    10    13
 -0.0017174843     1     2    10    16
 -0.0427116069     1     2    11     1
 0.0164868462     1     2    11     3
 0.0042901594     1     2    11     5
 -0.0010861820     1     2    11     6
 0.0045922499     1     2    11     7
 0.0005035757     1     2    11     8
 -0.0002441471     1     2    11     9
 0.0125032535     1     2    11    11
 -0.0011255808     1     2    11    12
 -0.0012133560     1     2    11    14
 -0.0013101345     1     2    11    15
 -0.0603264192     1     2    12     1
 -0.0020796657     1     2    12     3
 0.0056505511     1     2    12     5
 -0.0056581132     1     2    12     6
 -0.0012098894     1     2    12     7
 0.0010644410     1     2    12     8
 -0.0005663390     1     2    12     9
 -0.0008776364     1     2    12    11
 0.0027152738     1     2    12    12
 -0.0053453854     1     2    12    14
 -0.0004628286     1     2    12    15
 0.0151759470     1     2    13     4
 0.0061385687     1     2    13    10
 0.0083708955     1     2    13    13
 -0.0025737565     1     2    13    16
 -0.0454138188     1     2    14     1
 0.0020968920     1     2    14     3
 -0.0136277073     1     2    14     5
 0.0130674980     1     2    14     6
 0.0024041431     1     2    14     7
 -0.0025675688     1     2    14     8
 0.0016632325     1     2    14     9
 -0.0010247141     1     2    14    11
 -0.0054894259     1     2    14    12
 0.0132913478     1     2    14    14
 0.0009423798     1     2    14    15
 0.1247484068     1     2    15     1
 -0.0027208604     1     2    15     3
 -0.0014387671     1     2    15     5
 0.0010028635     1     2    15     6
 -0.0008237576     1     2    15     7
 -0.0002563943     1     2    15     8
 -0.0000058713     1     2    15     9
 -0.0021307001     1     2    15    11
 -0.0004043826     1     2    15    12
 0.0011040747     1     2    15    14
 0.0005622316     1     2    15    15
 -0.0041372982     1     2    16     4
 -0.0018336476     1     2    16    10
 -0.0028438275     1     2    16    13
 0.0005102835     1     2    16    16
 0.0616015105     1     3     2     1
 -0.0064913425     1     3     2     2
 0.0005131532     1     3     2     5
 0.0006087783     1     3     2     6
 0.0005805705     1     3     2     7
 -0.0000869951     1     3     2     8
 0.0001098233     1     3     2     9
 0.0042117378     1     3     2    11
 -0.0009122735     1     3     2    12
 0.0003229358     1     3     2    14
 0.0004070823     1     3     2    15
 -0.9180122371     1     3     3     1
 -0.0348475427     1     3     3     2
 0.0017142450     1     3     3     5
 0.0031601270     1     3     3     6
 -0.0054580382     1     3     3     7
 -0.0006766068     1     3     3     8
 -0.0005823284     1     3     3     9
 -0.0020766480     1     3     3    11
 -0.0017996181     1     3     3    12
 -0.0019681294     1     3     3    14
 0.0080116503     1     3     3    15
 -0.0127554246     1     3     4     4
 -0.0046116744     1     3     4    10
 -0.0040766161     1     3     4    13
 0.0044868487     1     3     4    16
 -0.0597066558     1     3     5     1
 -0.0028978783     1     3     5     2
 -0.0064533916     1     3     5     5
 0.0063460581     1     3     5     6
 0.0002618358     1     3     5     7
 -0.0017007542     1     3     5     8
 -0.0005385274     1     3     5     9
 -0.0011686377     1     3     5    11
 -0.0010230167     1     3     5    12
 0.0052407454     1     3     5    14
 0.0026588194     1     3     5    15
 -0.0512506511     1     3     6     1
 -0.0015640551     1     3     6     2
 0.0049792578     1     3     6     5
 -0.0036638545     1     3     6     6
 -0.0004506032     1     3     6     7
 0.0009293471     1     3     6     8
 -0.0004455525     1     3     6     9
 0.0011195300     1     3     6    11
 0.0006565922     1     3     6    12
 -0.0037259070     1     3     6    14
 -0.0010821908     1     3     6    15
 -0.1115026607     1     3     7     1
 -0.0081888252     1     3     7     2
 0.0011436260     1     3     7     5
 0.0007020748     1     3     7     6
 -0.0041356740     1     3     7     7
 -0.0002172725     1     3     7     8
 -0.0008099133     1     3     7     9
 -0.0030683045     1     3     7    11
 -0.0001130416     1     3     7    12
 -0.0012911977     1     3     7    14
 0.0026295797     1     3     7    15
 -0.0008705019     1     3     8     1
 -0.0000688138     1     3     8     2
 -0.0009447381     1     3     8     5
 0.0006062612     1     3     8     6
 -0.0000862163     1     3     8     7
 0.0004165035     1     3     8     8
 -0.0004572195     1     3     8     9
 0.0001143650     1     3     8    11
 -0.0000670860     1     3     8    12
 0.0002091034     1     3     8    14
 0.0002366807     1     3     8    15
 0.0147258031     1     3     9     1
 -0.0010771403     1     3     9     2
 0.0001657080     1     3     9     5
 -0.0008403976     1     3     9     6
 -0.0009655270     1     3     9     7
 -0.0003343660     1     3     9     8
 -0.0000741106     1     3     9     9
 -0.0040030473     1     3     9    11
 0.0010072075     1     3     9    12
 -0.0019545682     1     3     9    14
 0.0007219875     1     3     9    15
 -0.0032399292     1     3    10     4
 -0.0004736315     1     3    10    10
 -0.0017344270     1     3    10    13
 0.0005957960     1     3    10    16
 -0.2431949126     1     3    11     1
 -0.0164868462     1     3    11     2
 0.0003092963     1     3    11     5
 0.0032226432     1     3    11     6
 -0.0059888928     1     3    11     7
 -0.0003876862     1     3    11     8
 -0.0043175539     1     3    11     9
 -0.0055282350     1     3    11    11
 -0.0034567065     1     3    11    12
 -0.0017382738     1     3    11    14
 0.0062421425     1     3    11    15
 0.0567102850     1     3    12     1
 0.0020796657     1     3    12     2
 -0.0016891723     1     3    12     5
 0.0013891959     1     3    12     6
 0.0009509044     1     3    12     7
 -0.0003351817     1     3    12     8
 0.0010069778     1     3    12     9
 -0.0023586710     1     3    12    11
 -0.0001973402     1     3    12    12
 0.0033176619     1     3    12    14
 -0.0006080665     1     3    12    15
 -0.0047017592     1     3    13     4
 -0.0026281762     1     3    13    10
 -0.0046341780     1     3    13    13
 -0.0009465426     1     3    13    16
 -0.0161511643     1     3    14     1
 -0.0020968920     1     3    14     2
 0.0043335611     1     3    14     5
 -0.0032612516     1     3    14     6
 -0.0011355505     1     3    14     7
 0.0004984824     1     3    14     8
 -0.0013567058     1     3    14     9
 -0.0006629737     1     3    14    11
 0.0020477513     1     3    14    12
 -0.0040811531     1     3    14    14
 0.0011595375     1     3    14    15
 0.0074662616     1     3    15     1
 0.0027208604     1     3    15     2
 0.0001837650     1     3    15     5
 -0.0006401937     1     3    15     6
 0.0010303134     1     3    15     7
 0.0000832535     1     3    15     8
 0.0006522714     1     3    15     9
 0.0010888119     1     3    15    11
 -0.0003059223     1     3    15    12
 0.0018640397     1     3    15    14
 -0.0015793816     1     3    15    15
 0.0009305295     1     3    16     4
 -0.0004924058     1     3    16    10
 -0.0027718785     1     3    16    13
 -0.0013757594     1     3    16    16
 0.0025872742     1     4     2    10
 0.0044056355     1     4     2    13
 -0.0006275142     1     4     2    16
 -0.0011911604     1     4     3    10
 0.0009129874     1     4     3    13
 0.0035339783     1     4     3    16
 -1.0215673018     1     4     4     1
 -0.0440851356     1     4     4     2
 0.0127554246     1     4     4     3
 0.0034917720     1     4     4     5
 0.0053233718     1     4     4     6
 -0.0058637598     1     4     4     7
 -0.0010988126     1     4     4     8
 -0.0066268863     1     4     4     9
 -0.0007522297     1     4     4    11
 -0.0069291559     1     4     4    12
 -0.0039326534     1     4     4    14
 0.0098827159     1     4     4    15
 0.0012339585     1     4     5    10
 -0.0007639113     1     4     5    13
 0.0008176131     1     4     5    16
 0.0001198794     1     4     6    10
 0.0005637048     1     4     6    13
 -0.0000932652     1     4     6    16
 -0.0009992826     1     4     7    10
 -0.0014809481     1     4     7    13
 0.0005374993     1     4     7    16
 0.0005109687     1     4     8    10
 0.0002722249     1     4     8    13
 -0.0003812115     1     4     8    16
 0.0003179068     1     4     9    10
 0.0007157199     1     4     9    13
 -0.0002160359     1     4     9    16
 -0.1804017738     1     4    10     1
 -0.0112735328     1     4    10     2
 0.0032399292     1     4    10     3
 0.0015765746     1     4    10     5
 0.0025392195     1     4    10     6
 -0.0028122217     1     4    10     7
 0.0000184988     1     4    10     8
 -0.0018568344     1     4    10     9
 0.0004297695     1     4    10    11
 -0.0025503621     1     4    10    12
 -0.0004363101     1     4    10    14
 0.0046257109     1     4    10    15
 0.0006221511     1     4    11    10
 0.0008790252     1     4    11    13
 -0.0005013055     1     4    11    16
 0.0000911326     1     4    12    10
 0.0003252670     1     4    12    13
 0.0002042035     1     4    12    16
 -0.2347856298     1     4    13     1
 -0.0151759470     1     4    13     2
 0.0047017592     1     4    13     3
 0.0012436957     1     4    13     5
 0.0024700252     1     4    13     6
 -0.0048691797     1     4    13     7
 -0.0001582337     1     4    13     8
 -0.0025406248     1     4    13     9
 -0.0006504311     1     4    13    11
 -0.0025747784     1     4    13    12
 -0.0024450589     1     4    13    14
 0.0058399578     1     4    13    15
 0.0002640949     1     4    14    10
 0.0000543504     1     4    14    13
 0.0001922394     1     4    14    16
 0.0012674499     1     4    15    10
 0.0010349866     1     4    15    13
 -0.0004102907     1     4    15    16
 0.0641251138     1     4    16     1
 0.0041372982     1     4    16     2
 -0.0009305295     1     4    16     3
 -0.0003175288     1     4    16     5
 -0.0005563300     1     4    16     6
 0.0004510291     1     4    16     7
 -0.0003211744     1     4    16     8
 0.0005740464     1     4    16     9
 -0.0023671898     1     4    16    11
 0.0011942935     1     4    16    12
 0.0008049085     1     4    16    14
 -0.0013212042     1     4    16    15
 0.0449514800     1     5     2     1
 -0.0002040751     1     5     2     2
 -0.0005131532     1     5     2     3
 -0.0009558749     1     5     2     6
 -0.0002903136     1     5     2     7
 0.0003312080     1     5     2     8
 -0.0004291168     1     5     2     9
 0.0006691568     1     5     2    11
 0.0015589354     1     5     2    12
 -0.0035832490     1     5     2    14
 0.0000714468     1     5     2    15
 -0.0597066558     1     5     3     1
 -0.0034188290     1     5     3     2
 -0.0017142450     1     5     3     3
 0.0010896877     1     5     3     6
 -0.0009571492     1     5     3     7
 -0.0006831565     1     5     3     8
 -0.0006901493     1     5     3     9
 -0.0015269730     1     5     3    11
 0.0007367570     1     5     3    12
 0.0006566097     1     5     3    14
 0.0024450093     1     5     3    15
 -0.0034917720     1     5     4     4
 -0.0004746608     1     5     4    10
 -0.0020902793     1     5     4    13
 0.0011476512     1     5     4    16
 -0.6975771387     1     5     5     1
 -0.0239108861     1     5     5     2
 0.0064533916     1     5     5     3
 0.0017490362     1     5     5     6
 -0.0033672614     1     5     5     7
 0.0004705824     1     5     5     8
 -0.0037961522     1     5     5     9
 -0.0011616362     1     5     5    11
 -0.0025764630     1     5     5    12
 -0.0012840842     1     5     5    14
 0.0037234129     1     5     5    15
 0.3111949847     1     5     6     1
 0.0159725681     1     5     6     2
 -0.0049792578     1     5     6     3
 -0.0050810380     1     5     6     6
 0.0019709207     1     5     6     7
 0.0008059426     1     5     6     8
 0.0025431747     1     5     6     9
 0.0006281100     1     5     6    11
 0.0034645066     1     5     6    12
 -0.0011738437     1     5     6    14
 -0.0032297083     1     5     6    15
 0.0375532706     1     5     7     1
 0.0012325815     1     5     7     2
 -0.0011436260     1     5     7     3
 -0.0003757752     1     5     7     6
 -0.0000106174     1     5     7     7
 0.0001684146     1     5     7     8
 0.0003630973     1     5     7     9
 -0.0009238894     1     5     7    11
 0.0000413900     1     5     7    12
 0.0009225029     1     5     7    14
 -0.0001025617     1     5     7    15
 -0.0381901435     1     5     8     1
 -0.0029197221     1     5     8     2
 0.0009447381     1     5     8     3
 0.0015275033     1     5     8     6
 -0.0000760675     1     5     8     7
 -0.0016389397     1     5     8     8
 -0.0006141468     1     5     8     9
 0.0002467173     1     5     8    11
 -0.0011156106     1     5     8    12
 0.0005922855     1     5     8    14
 0.0009472797     1     5     8    15
 0.0366422623     1     5     9     1
 0.0018112301     1     5     9     2
 -0.0001657080     1     5     9     3
 -0.0004177865     1     5     9     6
 0.0006386571     1     5     9     7
 -0.0001133303     1     5     9     8
 -0.0007955743     1     5     9     9
 0.0008196019     1     5     9    11
 0.0015349341     1     5     9    12
 -0.0001071017     1     5     9    14
 -0.0005665323     1     5     9    15
 -0.0015765746     1     5    10     4
 -0.0025428418     1     5    10    10
 -0.0004003089     1     5    10    13
 -0.0001701036     1     5    10    16
 -0.0692555799     1     5    11     1
 -0.0042901594     1     5    11     2
 -0.0003092963     1     5    11     3
 0.0008032780     1     5    11     6
 -0.0017292721     1     5    11     7
 0.0000489041     1     5    11     8
 -0.0005935509     1     5    11     9
 -0.0010039529     1     5    11    11
 -0.0006339807     1     5    11    12
 -0.0015871948     1     5    11    14
 0.0015623537     1     5    11    15
 -0.0789275245     1     5    12     1
 -0.0056505511     1     5    12     2
 0.0016891723     1     5    12     3
 0.0017918260     1     5    12     6
 -0.0016275356     1     5    12     7
 -0.0004784094     1     5    12     8
 0.0001045857     1     5    12     9
 -0.0013202707     1     5    12    11
 -0.0018127310     1     5    12    12
 0.0002974979     1     5    12    14
 0.0026203014     1     5    12    15
 -0.0012436957     1     5    13     4
 0.0004439919     1     5    13    10
 -0.0007820769     1     5    13    13
 0.0001740264     1     5    13    16
 0.2153279962     1     5    14     1
 0.0136277073     1     5    14     2
 -0.0043335611     1     5    14     3
 -0.0034310420     1     5    14     6
 0.0033469214     1     5    14     7
 0.0003267842     1     5    14     8
 0.0026085920     1     5    14     9
 -0.0005967927     1     5    14    11
 0.0029704382     1     5    14    12
 0.0008925957     1     5    14    14
 -0.0052715835     1     5    14    15
 -0.0044580542     1     5    15     1
 0.0014387671     1     5    15     2
 -0.0001837650     1     5    15     3
 -0.0009151252     1     5    15     6
 -0.0001670998     1     5    15     7
 0.0004591770     1     5    15     8
 0.0000583625     1     5    15     9
 -0.0003188835     1     5    15    11
 0.0017099416     1     5    15    12
 -0.0026000045     1     5    15    14
 -0.0014343122     1     5    15    15
 0.0003175288     1     5    16     4
 -0.0006071025     1     5    16    10
 -0.0001206174     1     5    16    13
 0.0000366353     1     5    16    16
 0.0628122653     1     6     2     1
 -0.0007854092     1     6     2     2
 -0.0006087783     1     6     2     3
 0.0009558749     1     6     2     5
 -0.0001030953     1     6     2     7
 -0.0001283904     1     6     2     8
 0.0002314356     1     6     2     9
 -0.0005681022     1     6     2    11
 -0.0009284240     1     6     2    12
 0.0019990022     1     6     2    14
 0.0000638995     1     6     2    15
 -0.0512506511     1     6     3     1
 -0.0022267462     1     6     3     2
 -0.0031601270     1     6     3     3
 -0.0010896877     1     6     3     5
 -0.0011702689     1     6     3     7
 0.0003191001     1     6     3     8
 0.0003980695     1     6     3     9
 -0.0021108665     1     6     3    11
 -0.0007551126     1     6     3    12
 -0.0004650598     1     6     3    14
 -0.0004231990     1     6     3    15
 -0.0053233718     1     6     4     4
 -0.0024274970     1     6     4    10
 -0.0018870124     1     6     4    13
 0.0004629208     1     6     4    16
 0.3111949847     1     6     5     1
 0.0179360908     1     6     5     2
 -0.0063460581     1     6     5     3
 -0.0017490362     1     6     5     5
 0.0023778185     1     6     5     7
 -0.0007464139     1     6     5     8
 0.0030022019     1     6     5     9
 -0.0002155965     1     6     5    11
 0.0017255678     1     6     5    12
 0.0022918949     1     6     5    14
 -0.0023664149     1     6     5    15
 -0.5209170054     1     6     6     1
 -0.0151285186     1     6     6     2
 0.0036638545     1     6     6     3
 0.0050810380     1     6     6     5
 -0.0024543018     1     6     6     7
 0.0001566164     1     6     6     8
 -0.0026396993     1     6     6     9
 -0.0002005889     1     6     6    11
 -0.0011859159     1     6     6    12
 -0.0032939766     1     6     6    14
 0.0024305204     1     6     6    15
 -0.0195752879     1     6     7     1
 -0.0025067532     1     6     7     2
 -0.0007020748     1     6     7     3
 0.0003757752     1     6     7     5
 -0.0010905460     1     6     7     7
 -0.0001043696     1     6     7     8
 -0.0005086393     1     6     7     9
 -0.0007601905     1     6     7    11
 0.0002014982     1     6     7    12
 -0.0013394115     1     6     7    14
 0.0006212518     1     6     7    15
 0.0818651111     1     6     8     1
 0.0027782757     1     6     8     2
 -0.0006062612     1     6     8     3
 -0.0015275033     1     6     8     5
 0.0002967404     1     6     8     7
 0.0011087070     1     6     8     8
 0.0005926222     1     6     8     9
 -0.0002377670     1     6     8    11
 0.0003975959     1     6     8    12
 0.0007197571     1     6     8    14
 -0.0007032046     1     6     8    15
 -0.0113685228     1     6     9     1
 -0.0016626643     1     6     9     2
 0.0008403976     1     6     9     3
 0.0004177865     1     6     9     5
 -0.0004784702     1     6     9     7
 0.0001036609     1     6     9     8
 0.0005924553     1     6     9     9
 -0.0006538870     1     6     9    11
 -0.0010357668     1     6     9    12
 -0.0003631567     1     6     9    14
 0.0004783562     1     6     9    15
 -0.0025392195     1     6    10     4
 0.0006969516     1     6    10    10
 -0.0015824073     1     6    10    13
 0.0006486658     1     6    10    16
 0.0167213393     1     6    11     1
 0.0010861820     1     6    11     2
 -0.0032226432     1     6    11     3
 -0.0008032780     1     6    11     5
 -0.0003857087     1     6    11     7
 -0.0001784890     1     6    11     8
 -0.0001250154     1     6    11     9
 -0.0023430066     1     6    11    11
 0.0002179952     1     6    11    12
 0.0011771895     1     6    11    14
 -0.0000670459     1     6    11    15
 0.1128447021     1     6    12     1
 0.0056581132     1     6    12     2
 -0.0013891959     1     6    12     3
 -0.0017918260     1     6    12     5
 0.0016674996     1     6    12     7
 0.0000930360     1     6    12     8
 0.0002594206     1     6    12     9
 0.0006415148     1     6    12    11
 0.0008854710     1     6    12    12
 0.0015032914     1     6    12    14
 -0.0021183931     1     6    12    15
 -0.0024700252     1     6    13     4
 -0.0017304037     1     6    13    10
 -0.0014269192     1     6    13    13
 0.0001577431     1     6    13    16
 -0.2071072749     1     6    14     1
 -0.0130674980     1     6    14     2
 0.0032612516     1     6    14     3
 0.0034310420     1     6    14     5
 -0.0034069004     1     6    14     7
 0.0002539611     1     6    14     8
 -0.0026427908     1     6    14     9
 0.0003881923     1     6    14    11
 -0.0011468885     1     6    14    12
 -0.0037286708     1     6    14    14
 0.0043554937     1     6    14    15
 -0.0681437500     1     6    15     1
 -0.0010028635     1     6    15     2
 0.0006401937     1     6    15     3
 0.0009151252     1     6    15     5
 0.0003110285     1     6    15     7
 -0.0002173734     1     6    15     8
 -0.0000358571     1     6    15     9
 0.0008235506     1     6    15    11
 -0.0011245869     1     6    15    12
 0.0016130580     1     6    15    14
 0.0008130934     1     6    15    15
 0.0005563300     1     6    16     4
 0.0006715204     1     6    16    10
 0.0001294806     1     6    16    13
 -0.0002847880     1     6    16    16
 -0.1066855137     1     7     2     1
 -0.0020205708     1     7     2     2
 -0.0005805705     1     7     2     3
 0.0002903136     1     7     2     5
 0.0001030953     1     7     2     6
 -0.0000280354     1     7     2     8
 0.0000259759     1     7     2     9
 0.0009365498     1     7     2    11
 -0.0003414499     1     7     2    12
 0.0002753221     1     7     2    14