&FCI NORB= 13,NELEC= 16,MS2=0,
 ORBSYM=1,1,1,1,1,1,1,1,1,1,1,1,1
 ISYM=1,
&END
 0.3951965979     1     1     2     2
 -0.0000000009     1     1     2     3
 0.0050422443     1     1     2     4
 -0.0000000028     1     1     2     7
 -0.0000000006     1     1     2    10
 -0.0014744494     1     1     2    11
 -0.0000000009     1     1     3     2
 0.6004563570     1     1     3     3
 -0.0000000634     1     1     3     4
 0.1103398947     1     1     3     7
 -0.0345864078     1     1     3    10
 0.0000000148     1     1     3    11
 0.0050422443     1     1     4     2
 -0.0000000634     1     1     4     3
 0.4825949957     1     1     4     4
 0.0000000568     1     1     4     7
 0.0000000178     1     1     4    10
 -0.0594449784     1     1     4    11
 0.4799456237     1     1     5     5
 0.0000000628     1     1     5     6
 0.0000000344     1     1     5     8
 0.0221060407     1     1     5     9
 0.0000000182     1     1     5    12
 0.0652683257     1     1     5    13
 0.0000000628     1     1     6     5
 0.4803542753     1     1     6     6
 -0.0376695740     1     1     6     8
 -0.0000000237     1     1     6     9
 0.0640303535     1     1     6    12
 0.0000000078     1     1     6    13
 -0.0000000028     1     1     7     2
 0.1103398947     1     1     7     3
 0.0000000568     1     1     7     4
 0.5613660217     1     1     7     7
 0.0468285915     1     1     7    10
 -0.0000000052     1     1     7    11
 0.0000000344     1     1     8     5
 -0.0376695740     1     1     8     6
 0.5050106100     1     1     8     8
 0.0000000435     1     1     8     9
 -0.0050278418     1     1     8    12
 0.0000000023     1     1     8    13
 0.0221060407     1     1     9     5
 -0.0000000237     1     1     9     6
 0.0000000435     1     1     9     8
 0.4422585938     1     1     9     9
 -0.0000000006     1     1     9    12
 0.0012003718     1     1     9    13
 -0.0000000006     1     1    10     2
 -0.0345864078     1     1    10     3
 0.0000000178     1     1    10     4
 0.0468285915     1     1    10     7
 0.2195212530     1     1    10    10
 -0.0000000164     1     1    10    11
 -0.0014744494     1     1    11     2
 0.0000000148     1     1    11     3
 -0.0594449784     1     1    11     4
 -0.0000000052     1     1    11     7
 -0.0000000164     1     1    11    10
 0.2138417689     1     1    11    11
 0.0000000182     1     1    12     5
 0.0640303535     1     1    12     6
 -0.0050278418     1     1    12     8
 -0.0000000006     1     1    12     9
 0.2112176643     1     1    12    12
 0.0000000139     1     1    12    13
 0.0652683257     1     1    13     5
 0.0000000078     1     1    13     6
 0.0000000023     1     1    13     8
 0.0012003718     1     1    13     9
 0.0000000139     1     1    13    12
 0.2122812259     1     1    13    13
 -0.3951965979     1     2     2     1
 0.0044030709     1     2     2     3
 0.0000000011     1     2     2     4
 0.0127334414     1     2     2     7
 0.0024066997     1     2     2    10
 -0.0000000003     1     2     2    11
 0.0000000009     1     2     3     1
 -0.0000000002     1     2     3     3
 0.1483094199     1     2     3     4
 -0.0000000001     1     2     3     7
 0.0000000001     1     2     3    10
 -0.0348640556     1     2     3    11
 -0.0050422443     1     2     4     1
 0.1484275843     1     2     4     3
 -0.0000000001     1     2     4     4
 -0.1319695489     1     2     4     7
 -0.0410709529     1     2     4    10
 -0.0000000001     1     2     4    11
 -0.0000000053     1     2     5     5
 -0.1466774929     1     2     5     6
 -0.0819188873     1     2     5     8
 0.0000000007     1     2     5     9
 -0.0297885901     1     2     5    12
 0.0000000014     1     2     5    13
 -0.1466675459     1     2     6     5
 0.0000000051     1     2     6     6
 0.0000000014     1     2     6     8
 0.0544264538     1     2     6     9
 -0.0000000015     1     2     6    12
 -0.0308352044     1     2     6    13
 0.0000000028     1     2     7     1
 -0.0000000001     1     2     7     3
 -0.1322995072     1     2     7     4
 0.0125538188     1     2     7    11
 -0.0816719416     1     2     8     5
 0.0000000014     1     2     8     6
 0.0000000005     1     2     8     8
 -0.1013783114     1     2     8     9
 -0.0000000003     1     2     8    12
 -0.0044106556     1     2     8    13
 0.0000000007     1     2     9     5
 0.0542191891     1     2     9     6
 -0.1013640748     1     2     9     8
 -0.0000000004     1     2     9     9
 0.0015579487     1     2     9    12
 -0.0000000002     1     2     9    13
 0.0000000006     1     2    10     1
 0.0000000001     1     2    10     3
 -0.0411245178     1     2    10     4
 -0.0000000002     1     2    10    10
 0.0381808473     1     2    10    11
 0.0014744494     1     2    11     1
 -0.0348834668     1     2    11     3
 -0.0000000001     1     2    11     4
 0.0124593085     1     2    11     7
 0.0381619013     1     2    11    10
 0.0000000002     1     2    11    11
 -0.0297730143     1     2    12     5
 -0.0000000015     1     2    12     6
 -0.0000000003     1     2    12     8
 0.0016391740     1     2    12     9
 -0.0000000043     1     2    12    12
 -0.0322072087     1     2    12    13
 0.0000000014     1     2    13     5
 -0.0308225928     1     2    13     6
 -0.0045126222     1     2    13     8
 -0.0000000002     1     2    13     9
 -0.0322073634     1     2    13    12
 0.0000000042     1     2    13    13
 0.0000000009     1     3     2     1
 -0.0044030709     1     3     2     2
 -0.0001195613     1     3     2     4
 0.0000302955     1     3     2    11
 -0.6004563570     1     3     3     1
 0.0000000002     1     3     3     2
 0.0000000009     1     3     3     4
 0.0094632084     1     3     3     7
 0.0026264367     1     3     3    10
 -0.0000000003     1     3     3    11
 0.0000000634     1     3     4     1
 -0.1484275843     1     3     4     2
 0.0052447408     1     3     4     4
 0.0000000024     1     3     4     7
 0.0000000005     1     3     4    10
 -0.0012336118     1     3     4    11
 0.0110835313     1     3     5     5
 0.0000000023     1     3     5     6
 0.0000000015     1     3     5     8
 0.0017330134     1     3     5     9
 0.0000000012     1     3     5    12
 0.0040146667     1     3     5    13
 0.0000000023     1     3     6     5
 0.0110357078     1     3     6     6
 -0.0025363931     1     3     6     8
 -0.0000000011     1     3     6     9
 0.0039417468     1     3     6    12
 0.0000000005     1     3     6    13
 -0.1103398947     1     3     7     1
 0.0000000001     1     3     7     2
 0.0000000026     1     3     7     4
 0.0177500497     1     3     7     7
 0.0047156057     1     3     7    10
 -0.0000000007     1     3     7    11
 0.0000000009     1     3     8     5
 -0.0021408558     1     3     8     6
 0.0119139514     1     3     8     8
 0.0000000021     1     3     8     9
 -0.0005668730     1     3     8    12
 0.0000000002     1     3     8    13
 0.0011464557     1     3     9     5
 -0.0000000006     1     3     9     6
 0.0000000020     1     3     9     8
 0.0077525843     1     3     9     9
 -0.0000000001     1     3     9    12
 0.0003364555     1     3     9    13
 0.0345864078     1     3    10     1
 -0.0000000001     1     3    10     2
 0.0000000004     1     3    10     4
 0.0021706553     1     3    10     7
 0.0008325334     1     3    10    10
 -0.0000000003     1     3    10    11
 -0.0000000148     1     3    11     1
 0.0348834668     1     3    11     2
 -0.0008555617     1     3    11     4
 -0.0000000003     1     3    11     7
 -0.0000000003     1     3    11    10
 0.0005843187     1     3    11    11
 0.0000000008     1     3    12     5
 0.0026354005     1     3    12     6
 -0.0002940276     1     3    12     8
 -0.0000000003     1     3    12     9
 0.0013770574     1     3    12    12
 0.0000000004     1     3    12    13
 0.0027166741     1     3    13     5
 0.0000000004     1     3    13     6
 0.0000000003     1     3    13     8
 0.0002193522     1     3    13     9
 0.0000000004     1     3    13    12
 0.0014439659     1     3    13    13
 -0.0050422443     1     4     2     1
 -0.0000000011     1     4     2     2
 0.0001195613     1     4     2     3
 0.0003312569     1     4     2     7
 0.0000633000     1     4     2    10
 0.0000000634     1     4     3     1
 -0.1483094199     1     4     3     2
 -0.0000000009     1     4     3     3
 -0.0000000003     1     4     3     7
 0.0000000001     1     4     3    10
 -0.0002357491     1     4     3    11
 -0.4825949957     1     4     4     1
 0.0000000001     1     4     4     2
 -0.0052447408     1     4     4     3
 -0.0025973362     1     4     4     7
 0.0001112330     1     4     4    10
 -0.0000000024     1     4     5     5
 -0.0064550322     1     4     5     6
 -0.0017910060     1     4     5     8
 -0.0000000002     1     4     5     9
 -0.0030116303     1     4     5    12
 -0.0000000007     1     4     5    13
 -0.0065049563     1     4     6     5
 -0.0000000019     1     4     6     6
 0.0000000003     1     4     6     8
 0.0007884086     1     4     6     9
 -0.0000000010     1     4     6    12
 -0.0031503641     1     4     6    13
 -0.0000000568     1     4     7     1
 0.1322995072     1     4     7     2
 -0.0000000026     1     4     7     3
 -0.0000000035     1     4     7     7
 -0.0000000003     1     4     7    10
 0.0002095790     1     4     7    11
 -0.0040159260     1     4     8     5
 0.0000000003     1     4     8     6
 -0.0000000024     1     4     8     8
 -0.0059144788     1     4     8     9
 -0.0000000001     1     4     8    12
 -0.0016974774     1     4     8    13
 0.0022778034     1     4     9     6
 -0.0053604937     1     4     9     8
 -0.0000000016     1     4     9     9
 0.0015530793     1     4     9    12
 -0.0000000001     1     4     9    13
 -0.0000000178     1     4    10     1
 0.0411245178     1     4    10     2
 -0.0000000004     1     4    10     3
 -0.0000000006     1     4    10     7
 -0.0000000001     1     4    10    10
 -0.0004207542     1     4    10    11
 0.0594449784     1     4    11     1
 0.0000000001     1     4    11     2
 0.0008555617     1     4    11     3
 0.0006215294     1     4    11     7
 -0.0004879840     1     4    11    10
 -0.0000000001     1     4    11    11
 -0.0017613277     1     4    12     5
 -0.0000000006     1     4    12     6
 0.0006144641     1     4    12     9
 -0.0000000004     1     4    12    12
 -0.0005735483     1     4    12    13
 -0.0000000004     1     4    13     5
 -0.0018404744     1     4    13     6
 -0.0005034499     1     4    13     8
 -0.0000000001     1     4    13     9
 -0.0005716463     1     4    13    12
 -0.0000000002     1     4    13    13
 -0.0000080641     1     5     2     6
 -0.0002434278     1     5     2     8
 -0.0000116731     1     5     2    12
 0.0000000005     1     5     3     8
 0.0003325535     1     5     3     9
 0.0000000003     1     5     3    12
 0.0009451545     1     5     3    13
 0.0000463567     1     5     4     6
 0.0022118157     1     5     4     8
 -0.0000000001     1     5     4     9
 -0.0010377173     1     5     4    12
 -0.0000000002     1     5     4    13
 -0.4799456237     1     5     5     1
 0.0000000053     1     5     5     2
 -0.0110835313     1     5     5     3
 0.0000000024     1     5     5     4
 0.0034037630     1     5     5     7
 0.0020124962     1     5     5    10
 -0.0000000006     1     5     5    11
 -0.0000000628     1     5     6     1
 0.1466675459     1     5     6     2
 -0.0000000023     1     5     6     3
 0.0065049563     1     5     6     4
 -0.0000000007     1     5     6     7
 0.0000000001     1     5     6    10
 -0.0011202625     1     5     6    11
 0.0000000004     1     5     7     8
 -0.0009755893     1     5     7     9
 -0.0000000002     1     5     7    12
 -0.0010635863     1     5     7    13
 -0.0000000344     1     5     8     1
 0.0816719416     1     5     8     2
 -0.0000000009     1     5     8     3
 0.0040159260     1     5     8     4
 -0.0000000003     1     5     8     7
 0.0000000001     1     5     8    10
 -0.0009644282     1     5     8    11
 -0.0221060407     1     5     9     1
 -0.0000000007     1     5     9     2
 -0.0011464557     1     5     9     3
 0.0005310542     1     5     9     7
 0.0004570410     1     5     9    10
 -0.0000000002     1     5     9    11
 -0.0000948963     1     5    10     9
 0.0000000003     1     5    10    12
 0.0011462882     1     5    10    13
 -0.0000039114     1     5    11     6
 -0.0000149081     1     5    11     8
 -0.0009603599     1     5    11    12
 -0.0000000001     1     5    11    13
 -0.0000000182     1     5    12     1
 0.0297730143     1     5    12     2
 -0.0000000008     1     5    12     3
 0.0017613277     1     5    12     4
 -0.0000000001     1     5    12     7
 0.0000000004     1     5    12    10
 -0.0015459720     1     5    12    11
 -0.0652683257     1     5    13     1
 -0.0000000014     1     5    13     2
 -0.0027166741     1     5    13     3
 0.0000000004     1     5    13     4
 0.0004574577     1     5    13     7
 0.0019564468     1     5    13    10
 -0.0000000003     1     5    13    11
 0.0000080641     1     6     2     5
 0.0002035657     1     6     2     9
 -0.0000079158     1     6     2    13
 -0.0003383010     1     6     3     8
 -0.0000000005     1     6     3     9
 0.0009492750     1     6     3    12
 0.0000000001     1     6     3    13
 -0.0000463567     1     6     4     5
 -0.0019313273     1     6     4     9
 -0.0000000003     1     6     4    12
 -0.0010937042     1     6     4    13
 -0.0000000628     1     6     5     1
 0.1466774929     1     6     5     2
 -0.0000000023     1     6     5     3
 0.0064550322     1     6     5     4
 -0.0000000007     1     6     5     7
 0.0000000001     1     6     5    10
 -0.0011258313     1     6     5    11
 -0.4803542753     1     6     6     1
 -0.0000000051     1     6     6     2
 -0.0110357078     1     6     6     3
 0.0000000019     1     6     6     4
 0.0034457824     1     6     6     7
 0.0020181895     1     6     6    10
 -0.0000000005     1     6     6    11
 0.0011530477     1     6     7     8
 -0.0000000003     1     6     7     9
 -0.0009989034     1     6     7    12
 -0.0000000001     1     6     7    13
 0.0376695740     1     6     8     1
 -0.0000000014     1     6     8     2
 0.0021408558     1     6     8     3
 -0.0000000003     1     6     8     4
 -0.0007731669     1     6     8     7
 -0.0007016281     1     6     8    10
 0.0000000002     1     6     8    11
 0.0000000237     1     6     9     1
 -0.0542191891     1     6     9     2
 0.0000000006     1     6     9     3
 -0.0022778034     1     6     9     4
 0.0000000001     1     6     9     7
 0.0005845135     1     6     9    11
 0.0000180708     1     6    10     8
 0.0011483863     1     6    10    12
 0.0000039114     1     6    11     5
 0.0000625860     1     6    11     9
 -0.0000000002     1     6    11    12
 -0.0009573449     1     6    11    13
 -0.0640303535     1     6    12     1
 0.0000000015     1     6    12     2
 -0.0026354005     1     6    12     3
 0.0000000006     1     6    12     4
 0.0004458724     1     6    12     7
 0.0019325656     1     6    12    10
 -0.0000000005     1     6    12    11
 -0.0000000078     1     6    13     1
 0.0308225928     1     6    13     2
 -0.0000000004     1     6    13     3
 0.0018404744     1     6    13     4
 -0.0000000002     1     6    13     7
 0.0000000001     1     6    13    10
 -0.0015764215     1     6    13    11
 0.0000000028     1     7     2     1
 -0.0127334414     1     7     2     2
 -0.0003312569     1     7     2     4
 0.0000977459     1     7     2    11
 -0.1103398947     1     7     3     1
 0.0000000001     1     7     3     2
 -0.0094632084     1     7     3     3
 0.0000000003     1     7     3     4
 0.0023102070     1     7     3    10
 -0.0000000003     1     7     3    11
 -0.0000000568     1     7     4     1
 0.1319695489     1     7     4     2
 -0.0000000024     1     7     4     3
 0.0025973362     1     7     4     4
 0.0000000003     1     7     4    10
 -0.0004309283     1     7     4    11
 -0.0034037630     1     7     5     5
 0.0000000007     1     7     5     6
 0.0000000006     1     7     5     8
 -0.0015348216     1     7     5     9
 -0.0000000001     1     7     5    12
 -0.0016097609     1     7     5    13
 0.0000000007     1     7     6     5
 -0.0034457824     1     7     6     6
 0.0018665654     1     7     6     8
 -0.0000000005     1     7     6     9
 -0.0015391882     1     7     6    12
 0.0000000001     1     7     6    13
 -0.5613660217     1     7     7     1
 -0.0177500497     1     7     7     3
 0.0000000035     1     7     7     4
 0.0041255342     1     7     7    10
 -0.0000000009     1     7     7    11
 0.0000000003     1     7     8     5
 0.0007731669     1     7     8     6
 -0.0029244299     1     7     8     8
 0.0000000007     1     7     8     9
 -0.0000608626     1     7     8    12
 -0.0000000002     1     7     8    13
 -0.0005310542     1     7     9     5
 -0.0000000001     1     7     9     6
 0.0000000005     1     7     9     8
 -0.0021243328     1     7     9     9
 0.0000000002     1     7     9    12
 -0.0000242654     1     7     9    13
 -0.0468285915     1     7    10     1
 -0.0021706553     1     7    10     3
 0.0000000006     1     7    10     4
 0.0003810274     1     7    10    10
 -0.0000000005     1     7    10    11
 0.0000000052     1     7    11     1
 -0.0124593085     1     7    11     2
 0.0000000003     1     7    11     3
 -0.0006215294     1     7    11     4
 -0.0000000004     1     7    11    10
 0.0004561336     1     7    11    11
 0.0000000001     1     7    12     5
 -0.0004458724     1     7    12     6
 0.0002023392     1     7    12     8
 -0.0000000001     1     7    12     9
 -0.0003162514     1     7    12    12
 0.0000000003     1     7    12    13
 -0.0004574577     1     7    13     5
 0.0000000002     1     7    13     6
 -0.0002423633     1     7    13     9
 0.0000000003     1     7    13    12
 -0.0003288958     1     7    13    13
 0.0002434278     1     8     2     5
 -0.0000130062     1     8     2     9
 0.0001028173     1     8     2    13
 -0.0000000005     1     8     3     5
 0.0003383010     1     8     3     6
 0.0000000001     1     8     3     9
 -0.0002124039     1     8     3    12
 -0.0000000001     1     8     3    13
 -0.0022118157     1     8     4     5
 0.0000900766     1     8     4     9
 -0.0000000001     1     8     4    12
 -0.0011287221     1     8     4    13
 -0.0000000344     1     8     5     1
 0.0819188873     1     8     5     2
 -0.0000000015     1     8     5     3
 0.0017910060     1     8     5     4
 -0.0000000006     1     8     5     7
 -0.0009067575     1     8     5    11
 0.0376695740     1     8     6     1
 -0.0000000014     1     8     6     2
 0.0025363931     1     8     6     3
 -0.0000000003     1     8     6     4
 -0.0018665654     1     8     6     7
 -0.0007092257     1     8     6    10
 0.0000000002     1     8     6    11
 -0.0000000004     1     8     7     5
 -0.0011530477     1     8     7     6
 0.0000000001     1     8     7     9
 -0.0002405594     1     8     7    12
 -0.0000000003     1     8     7    13
 -0.5050106100     1     8     8     1
 -0.0000000005     1     8     8     2
 -0.0119139514     1     8     8     3
 0.0000000024     1     8     8     4
 0.0029244299     1     8     8     7
 0.0028749870     1     8     8    10
 -0.0000000008     1     8     8    11
 -0.0000000435     1     8     9     1
 0.1013640748     1     8     9     2
 -0.0000000020     1     8     9     3
 0.0053604937     1     8     9     4
 -0.0000000005     1     8     9     7
 0.0000000003     1     8     9    10
 -0.0023729180     1     8     9    11
 -0.0000180708     1     8    10     6
 -0.0006486596     1     8    10    12
 0.0000000001     1     8    10    13
 0.0000149081     1     8    11     5
 -0.0002177624     1     8    11     9
 -0.0000000001     1     8    11    12
 0.0003439979     1     8    11    13
 0.0050278418     1     8    12     1
 0.0000000003     1     8    12     2
 0.0002940276     1     8    12     3
 -0.0002023392     1     8    12     7
 -0.0007820958     1     8    12    10
 -0.0000000001     1     8    12    11
 -0.0000000023     1     8    13     1
 0.0045126222     1     8    13     2
 -0.0000000003     1     8    13     3
 0.0005034499     1     8    13     4
 0.0000000002     1     8    13    10
 -0.0000470717     1     8    13    11
 -0.0002035657     1     9     2     6
 0.0000130062     1     9     2     8
 -0.0000864266     1     9     2    12
 -0.0003325535     1     9     3     5
 0.0000000005     1     9     3     6
 -0.0000000001     1     9     3     8
 0.0000000001     1     9     3    12
 0.0001098226     1     9     3    13
 0.0000000001     1     9     4     5
 0.0019313273     1     9     4     6
 -0.0000900766     1     9     4     8
 0.0009464282     1     9     4    12
 -0.0221060407     1     9     5     1
 -0.0000000007     1     9     5     2
 -0.0017330134     1     9     5     3
 0.0000000002     1     9     5     4
 0.0015348216     1     9     5     7
 0.0005254355     1     9     5    10
 -0.0000000001     1     9     5    11
 0.0000000237     1     9     6     1
 -0.0544264538     1     9     6     2
 0.0000000011     1     9     6     3
 -0.0007884086     1     9     6     4
 0.0000000005     1     9     6     7
 0.0005449415     1     9     6    11
 0.0009755893     1     9     7     5
 0.0000000003     1     9     7     6
 -0.0000000001     1     9     7     8
 0.0000000003     1     9     7    12
 0.0002008129     1     9     7    13
 -0.0000000435     1     9     8     1
 0.1013783114     1     9     8     2
 -0.0000000021     1     9     8     3
 0.0059144788     1     9     8     4
 -0.0000000007     1     9     8     7
 0.0000000003     1     9     8    10
 -0.0023840316     1     9     8    11
 -0.4422585938     1     9     9     1
 0.0000000004     1     9     9     2
 -0.0077525843     1     9     9     3
 0.0000000016     1     9     9     4
 0.0021243328     1     9     9     7
 0.0017994314     1     9     9    10
 -0.0000000005     1     9     9    11
 0.0000948963     1     9    10     5
 0.0005089322     1     9    10    13
 -0.0000625860     1     9    11     6
 0.0002177624     1     9    11     8
 -0.0002585057     1     9    11    12
 0.0000000001     1     9    11    13
 0.0000000006     1     9    12     1
 -0.0016391740     1     9    12     2
 0.0000000003     1     9    12     3
 -0.0006144641     1     9    12     4
 0.0000000001     1     9    12     7
 -0.0000000001     1     9    12    10
 0.0001147618     1     9    12    11
 -0.0012003718     1     9    13     1
 0.0000000002     1     9    13     2
 -0.0002193522     1     9    13     3
 0.0000000001     1     9    13     4
 0.0002423633     1     9    13     7
 0.0006001836     1     9    13    10
 0.0000000001     1     9    13    11
 0.0000000006     1    10     2     1
 -0.0024066997     1    10     2     2
 -0.0000633000     1    10     2     4
 0.0000207000     1    10     2    11
 0.0345864078     1    10     3     1
 -0.0000000001     1    10     3     2
 -0.0026264367     1    10     3     3
 -0.0000000001     1    10     3     4
 -0.0023102070     1    10     3     7
 -0.0000000178     1    10     4     1
 0.0410709529     1    10     4     2
 -0.0000000005     1    10     4     3
 -0.0001112330     1    10     4     4
 -0.0000000003     1    10     4     7
 0.0000638048     1    10     4    11
 -0.0020124962     1    10     5     5
 -0.0000000001     1    10     5     6
 -0.0005254355     1    10     5     9
 -0.0000000002     1    10     5    12
 -0.0008402183     1    10     5    13
 -0.0000000001     1    10     6     5
 -0.0020181895     1    10     6     6
 0.0007092257     1    10     6     8
 -0.0008121710     1    10     6    12
 -0.0000000001     1    10     6    13
 -0.0468285915     1    10     7     1
 -0.0047156057     1    10     7     3
 0.0000000003     1    10     7     4
 -0.0041255342     1    10     7     7
 -0.0000000001     1    10     8     5
 0.0007016281     1    10     8     6
 -0.0028749870     1    10     8     8
 -0.0000000003     1    10     8     9
 0.0001411673     1    10     8    12
 -0.0000000001     1    10     8    13
 -0.0004570410     1    10     9     5
 -0.0000000003     1    10     9     8
 -0.0017994314     1    10     9     9
 0.0000000001     1    10     9    12
 -0.0000919507     1    10     9    13
 -0.2195212530     1    10    10     1
 0.0000000002     1    10    10     2
 -0.0008325334     1    10    10     3
 0.0000000001     1    10    10     4
 -0.0003810274     1    10    10     7
 -0.0000000001     1    10    10    11
 0.0000000164     1    10    11     1
 -0.0381619013     1    10    11     2
 0.0000000003     1    10    11     3
 0.0004879840     1    10    11     4
 0.0000000004     1    10    11     7
 -0.0001137502     1    10    11    11
 -0.0000000004     1    10    12     5
 -0.0019325656     1    10    12     6
 0.0007820958     1    10    12     8
 0.0000000001     1    10    12     9
 -0.0007930001     1    10    12    12
 -0.0000000001     1    10    12    13
 -0.0019564468     1    10    13     5
 -0.0000000001     1    10    13     6
 -0.0000000002     1    10    13     8
 -0.0006001836     1    10    13     9
 -0.0000000001     1    10    13    12
 -0.0008150079     1    10    13    13
 0.0014744494     1    11     2     1
 0.0000000003     1    11     2     2
 -0.0000302955     1    11     2     3
 -0.0000977459     1    11     2     7
 -0.0000207000     1    11     2    10
 -0.0000000148     1    11     3     1
 0.0348640556     1    11     3     2
 0.0000000003     1    11     3     3
 0.0002357491     1    11     3     4
 0.0000000003     1    11     3     7
 0.0594449784     1    11     4     1
 0.0000000001     1    11     4     2
 0.0012336118     1    11     4     3
 0.0004309283     1    11     4     7
 -0.0000638048     1    11     4    10
 0.0000000006     1    11     5     5
 0.0011258313     1    11     5     6
 0.0009067575     1    11     5     8
 0.0000000001     1    11     5     9
 0.0006294479     1    11     5    12
 0.0000000001     1    11     5    13
 0.0011202625     1    11     6     5
 0.0000000005     1    11     6     6
 -0.0000000002     1    11     6     8
 -0.0005449415     1    11     6     9
 0.0000000002     1    11     6    12
 0.0006693194     1    11     6    13
 0.0000000052     1    11     7     1
 -0.0125538188     1    11     7     2
 0.0000000007     1    11     7     3
 -0.0002095790     1    11     7     4
 0.0000000009     1    11     7     7
 0.0009644282     1    11     8     5
 -0.0000000002     1    11     8     6
 0.0000000008     1    11     8     8
 0.0023840316     1    11     8     9
 0.0004151751     1    11     8    13
 0.0000000002     1    11     9     5
 -0.0005845135     1    11     9     6
 0.0023729180     1    11     9     8
 0.0000000005     1    11     9     9
 -0.0003727071     1    11     9    12
 0.0000000164     1    11    10     1
 -0.0381808473     1    11    10     2
 0.0000000003     1    11    10     3
 0.0004207542     1    11    10     4
 0.0000000005     1    11    10     7
 0.0000000001     1    11    10    10
 -0.2138417689     1    11    11     1
 -0.0000000002     1    11    11     2
 -0.0005843187     1    11    11     3
 0.0000000001     1    11    11     4
 -0.0004561336     1    11    11     7
 0.0001137502     1    11    11    10
 0.0015459720     1    11    12     5
 0.0000000005     1    11    12     6
 0.0000000001     1    11    12     8
 -0.0001147618     1    11    12     9
 0.0000000002     1    11    12    12
 0.0005575441     1    11    12    13
 0.0000000003     1    11    13     5
 0.0015764215     1    11    13     6
 0.0000470717     1    11    13     8
 -0.0000000001     1    11    13     9
 0.0005513252     1    11    13    12
 0.0000116731     1    12     2     5
 0.0000864266     1    12     2     9
 0.0000001424     1    12     2    13
 -0.0000000003     1    12     3     5
 -0.0009492750     1    12     3     6
 0.0002124039     1    12     3     8
 -0.0000000001     1    12     3     9
 0.0010377173     1    12     4     5
 0.0000000003     1    12     4     6
 0.0000000001     1    12     4     8
 -0.0009464282     1    12     4     9
 -0.0000009595     1    12     4    13
 -0.0000000182     1    12     5     1
 0.0297885901     1    12     5     2
 -0.0000000012     1    12     5     3
 0.0030116303     1    12     5     4
 0.0000000001     1    12     5     7
 0.0000000002     1    12     5    10
 -0.0006294479     1    12     5    11
 -0.0640303535     1    12     6     1
 0.0000000015     1    12     6     2
 -0.0039417468     1    12     6     3
 0.0000000010     1    12     6     4
 0.0015391882     1    12     6     7
 0.0008121710     1    12     6    10
 -0.0000000002     1    12     6    11
 0.0000000002     1    12     7     5
 0.0009989034     1    12     7     6
 0.0002405594     1    12     7     8
 -0.0000000003     1    12     7     9
 0.0050278418     1    12     8     1
 0.0000000003     1    12     8     2
 0.0005668730     1    12     8     3
 0.0000000001     1    12     8     4
 0.0000608626     1    12     8     7
 -0.0001411673     1    12     8    10
 0.0000000006     1    12     9     1
 -0.0015579487     1    12     9     2
 0.0000000001     1    12     9     3
 -0.0015530793     1    12     9     4
 -0.0000000002     1    12     9     7
 -0.0000000001     1    12     9    10
 0.0003727071     1    12     9    11
 -0.0000000003     1    12    10     5
 -0.0011483863     1    12    10     6
 0.0006486596     1    12    10     8
 0.0009603599     1    12    11     5
 0.0000000002     1    12    11     6
 0.0000000001     1    12    11     8