&FCI NORB= 16,NELEC= 10,MS2=0,
 ORBSYM=1,1,1,1,1,1,1,1,1,1,1,1,1,1,1,1
 ISYM=1,
&END
 1.0046607341     1     1     2     2
 -0.0629011165     1     1     2     3
 -0.0471069734     1     1     2     5
 -0.0678586453     1     1     2     6
 0.1178047284     1     1     2     7
 0.0084747079     1     1     2     8
 0.0702827859     1     1     2     9
 0.0459419087     1     1     2    11
 0.0673921195     1     1     2    12
 0.0511277451     1     1     2    14
 -0.1380623421     1     1     2    15
 -0.0629011165     1     1     3     2
 0.9127097406     1     1     3     3
 0.0621761171     1     1     3     5
 0.0530868154     1     1     3     6
 0.1222761796     1     1     3     7
 0.0014389354     1     1     3     8
 -0.0148937476     1     1     3     9
 0.2699954035     1     1     3    11
 -0.0618387165     1     1     3    12
 0.0172836693     1     1     3    14
 -0.0076980946     1     1     3    15
 1.0181486474     1     1     4     4
 -0.2015043802     1     1     4    10
 0.2628909484     1     1     4    13
 -0.0709361712     1     1     4    16
 -0.0471069734     1     1     5     2
 0.0621761171     1     1     5     3
 0.6875464842     1     1     5     5
 -0.3258428901     1     1     5     6
 -0.0394763838     1     1     5     7
 0.0410748705     1     1     5     8
 -0.0400008822     1     1     5     9
 0.0771873911     1     1     5    11
 0.0835986656     1     1     5    12
 -0.2313656340     1     1     5    14
 0.0065398171     1     1     5    15
 -0.0678586453     1     1     6     2
 0.0530868154     1     1     6     3
 -0.3258428901     1     1     6     5
 0.5207253913     1     1     6     6
 0.0195855553     1     1     6     7
 -0.0818306829     1     1     6     8
 0.0113762456     1     1     6     9
 -0.0167015010     1     1     6    11
 -0.1127419081     1     1     6    12
 0.2069631924     1     1     6    14
 0.0680706442     1     1     6    15
 0.1178047284     1     1     7     2
 0.1222761796     1     1     7     3
 -0.0394763838     1     1     7     5
 0.0195855553     1     1     7     6
 0.3108312083     1     1     7     7
 -0.0149256419     1     1     7     8
 0.0421495711     1     1     7     9
 0.1130062083     1     1     7    11
 0.0020929620     1     1     7    12
 0.0663617011     1     1     7    14
 -0.0615813571     1     1     7    15
 0.0084747079     1     1     8     2
 0.0014389354     1     1     8     3
 0.0410748705     1     1     8     5
 -0.0818306829     1     1     8     6
 -0.0149256419     1     1     8     7
 0.2193614998     1     1     8     8
 -0.0073248337     1     1     8     9
 0.0123160096     1     1     8    11
 0.0073099744     1     1     8    12
 -0.0344700884     1     1     8    14
 -0.0333863490     1     1     8    15
 0.0702827859     1     1     9     2
 -0.0148937476     1     1     9     3
 -0.0400008822     1     1     9     5
 0.0113762456     1     1     9     6
 0.0421495711     1     1     9     7
 -0.0073248337     1     1     9     8
 0.3336168040     1     1     9     9
 0.0287136471     1     1     9    11
 0.0266817823     1     1     9    12
 0.0543661072     1     1     9    14
 -0.0214496541     1     1     9    15
 -0.2015043802     1     1    10     4
 0.3475575817     1     1    10    10
 -0.1194494264     1     1    10    13
 0.0517176651     1     1    10    16
 0.0459419087     1     1    11     2
 0.2699954035     1     1    11     3
 0.0771873911     1     1    11     5
 -0.0167015010     1     1    11     6
 0.1130062083     1     1    11     7
 0.0123160096     1     1    11     8
 0.0287136471     1     1    11     9
 0.4972718319     1     1    11    11
 0.0009217637     1     1    11    12
 -0.0253723056     1     1    11    14
 -0.0264425297     1     1    11    15
 0.0673921195     1     1    12     2
 -0.0618387165     1     1    12     3
 0.0835986656     1     1    12     5
 -0.1127419081     1     1    12     6
 0.0020929620     1     1    12     7
 0.0073099744     1     1    12     8
 0.0266817823     1     1    12     9
 0.0009217637     1     1    12    11
 0.3490939218     1     1    12    12
 -0.0866617335     1     1    12    14
 -0.0076725392     1     1    12    15
 0.2628909484     1     1    13     4
 -0.1194494264     1     1    13    10
 0.4533366400     1     1    13    13
 -0.0088299253     1     1    13    16
 0.0511277451     1     1    14     2
 0.0172836693     1     1    14     3
 -0.2313656340     1     1    14     5
 0.2069631924     1     1    14     6
 0.0663617011     1     1    14     7
 -0.0344700884     1     1    14     8
 0.0543661072     1     1    14     9
 -0.0253723056     1     1    14    11
 -0.0866617335     1     1    14    12
 0.5135348343     1     1    14    14
 -0.0183601852     1     1    14    15
 -0.1380623421     1     1    15     2
 -0.0076980946     1     1    15     3
 0.0065398171     1     1    15     5
 0.0680706442     1     1    15     6
 -0.0615813571     1     1    15     7
 -0.0333863490     1     1    15     8
 -0.0214496541     1     1    15     9
 -0.0264425297     1     1    15    11
 -0.0076725392     1     1    15    12
 -0.0183601852     1     1    15    14
 0.3483688718     1     1    15    15
 -0.0709361712     1     1    16     4
 0.0517176651     1     1    16    10
 -0.0088299253     1     1    16    13
 0.3488207690     1     1    16    16
 -1.0046607341     1     2     2     1
 0.0063837076     1     2     2     3
 0.0002304077     1     2     2     5
 0.0006087116     1     2     2     6
 0.0024377860     1     2     2     7
 -0.0000329270     1     2     2     8
 0.0004977575     1     2     2     9
 0.0051580000     1     2     2    11
 -0.0006838839     1     2     2    12
 0.0011667654     1     2     2    14
 -0.0011130896     1     2     2    15
 0.0629011165     1     2     3     1
 0.0344461530     1     2     3     3
 0.0036561602     1     2     3     5
 0.0022924131     1     2     3     6
 0.0098930584     1     2     3     7
 0.0000255585     1     2     3     8
 0.0012761640     1     2     3     9
 0.0232429083     1     2     3    11
 -0.0033812684     1     2     3    12
 0.0026479518     1     2     3    14
 -0.0025678895     1     2     3    15
 0.0440833289     1     2     4     4
 -0.0157317085     1     2     4    10
 0.0221190355     1     2     4    13
 -0.0053681485     1     2     4    16
 0.0471069734     1     2     5     1
 0.0031041125     1     2     5     3
 0.0229077953     1     2     5     5
 -0.0186428632     1     2     5     6
 -0.0016460890     1     2     5     7
 0.0036015930     1     2     5     8
 -0.0025057755     1     2     5     9
 0.0056707321     1     2     5    11
 0.0078780962     1     2     5    12
 -0.0189565962     1     2     5    14
 -0.0014552720     1     2     5    15
 0.0678586453     1     2     6     1
 0.0016472776     1     2     6     3
 -0.0179181413     1     2     6     5
 0.0155875946     1     2     6     6
 0.0025386380     1     2     6     7
 -0.0030029274     1     2     6     8
 0.0020085865     1     2     6     9
 -0.0017308332     1     2     6    11
 -0.0068054732     1     2     6    12
 0.0157463921     1     2     6    14
 0.0010183044     1     2     6    15
 -0.1178047284     1     2     7     1
 0.0094871864     1     2     7     3
 -0.0013326438     1     2     7     5
 0.0026569752     1     2     7     6
 0.0026457577     1     2     7     7
 -0.0004094614     1     2     7     8
 0.0005516224     1     2     7     9
 0.0056958412     1     2     7    11
 -0.0016875424     1     2     7    12
 0.0027379846     1     2     7    14
 -0.0005700331     1     2     7    15
 -0.0084747079     1     2     8     1
 0.0001107398     1     2     8     3
 0.0033169414     1     2     8     5
 -0.0028722541     1     2     8     6
 -0.0003753633     1     2     8     7
 0.0006868492     1     2     8     8
 -0.0004459877     1     2     8     9
 0.0006440277     1     2     8    11
 0.0012282229     1     2     8    12
 -0.0029558311     1     2     8    14
 -0.0002458598     1     2     8    15
 -0.0702827859     1     2     9     1
 0.0012381771     1     2     9     3
 -0.0020508758     1     2     9     5
 0.0017482134     1     2     9     6
 0.0005224262     1     2     9     7
 -0.0004112270     1     2     9     8
 0.0003979867     1     2     9     9
 -0.0001057800     1     2     9    11
 -0.0006897171     1     2     9    12
 0.0016993100     1     2     9    14
 0.0000693144     1     2     9    15
 -0.0132176158     1     2    10     4
 0.0049614309     1     2    10    10
 -0.0065709667     1     2    10    13
 0.0017599058     1     2    10    16
 -0.0459419087     1     2    11     1
 0.0190973799     1     2    11     3
 0.0050209555     1     2    11     5
 -0.0010936201     1     2    11     6
 0.0047121845     1     2    11     7
 0.0005105434     1     2    11     8
 -0.0002423934     1     2    11     9
 0.0127900102     1     2    11    11
 -0.0011512433     1     2    11    12
 -0.0012240893     1     2    11    14
 -0.0013615147     1     2    11    15
 -0.0673921195     1     2    12     1
 -0.0024038745     1     2    12     3
 0.0062995159     1     2    12     5
 -0.0057031723     1     2    12     6
 -0.0012970962     1     2    12     7
 0.0010741388     1     2    12     8
 -0.0006330433     1     2    12     9
 -0.0008840237     1     2    12    11
 0.0027099688     1     2    12    12
 -0.0054960297     1     2    12    14
 -0.0003755768     1     2    12    15
 0.0177539484     1     2    13     4
 -0.0062477315     1     2    13    10
 0.0085251299     1     2    13    13
 -0.0026188398     1     2    13    16
 -0.0511277451     1     2    14     1
 0.0023614707     1     2    14     3
 -0.0152864221     1     2    14     5
 0.0133589318     1     2    14     6
 0.0024031262     1     2    14     7
 -0.0026140524     1     2    14     8
 0.0016568834     1     2    14     9
 -0.0010323461     1     2    14    11
 -0.0056603036     1     2    14    12
 0.0135539871     1     2    14    14
 0.0010439504     1     2    14    15
 0.1380623421     1     2    15     1
 -0.0030703035     1     2    15     3
 -0.0015523168     1     2    15     5
 0.0009366834     1     2    15     6
 -0.0007398386     1     2    15     7
 -0.0002502242     1     2    15     8
 0.0000840796     1     2    15     9
 -0.0022019739     1     2    15    11
 -0.0003127450     1     2    15    12
 0.0011902312     1     2    15    14
 0.0004040671     1     2    15    15
 -0.0047637121     1     2    16     4
 0.0018750870     1     2    16    10
 -0.0028979616     1     2    16    13
 0.0005291547     1     2    16    16
 0.0629011165     1     3     2     1
 -0.0063837076     1     3     2     2
 0.0005520477     1     3     2     5
 0.0006451355     1     3     2     6
 0.0004058720     1     3     2     7
 -0.0000851813     1     3     2     8
 0.0000379869     1     3     2     9
 0.0041455284     1     3     2    11
 -0.0009773939     1     3     2    12
 0.0002864811     1     3     2    14
 0.0005024140     1     3     2    15
 -0.9127097406     1     3     3     1
 -0.0344461530     1     3     3     2
 0.0017377937     1     3     3     5
 0.0032041966     1     3     3     6
 -0.0055626738     1     3     3     7
 -0.0007018641     1     3     3     8
 -0.0004750843     1     3     3     9
 -0.0022396881     1     3     3    11
 -0.0017241375     1     3     3    12
 -0.0019348017     1     3     3    14
 0.0080631059     1     3     3    15
 -0.0126599144     1     3     4     4
 0.0048709522     1     3     4    10
 -0.0043381763     1     3     4    13
 0.0046740230     1     3     4    16
 -0.0621761171     1     3     5     1
 -0.0031041125     1     3     5     2
 -0.0060822750     1     3     5     5
 0.0065331708     1     3     5     6
 0.0002515566     1     3     5     7
 -0.0017430857     1     3     5     8
 -0.0005550451     1     3     5     9
 -0.0012276627     1     3     5    11
 -0.0010794271     1     3     5    12
 0.0054211244     1     3     5    14
 0.0027532646     1     3     5    15
 -0.0530868154     1     3     6     1
 -0.0016472776     1     3     6     2
 0.0054977716     1     3     6     5
 -0.0037990265     1     3     6     6
 -0.0005276364     1     3     6     7
 0.0009413179     1     3     6     8
 -0.0004883775     1     3     6     9
 0.0010467468     1     3     6    11
 0.0007551976     1     3     6    12
 -0.0039137816     1     3     6    14
 -0.0010303323     1     3     6    15
 -0.1222761796     1     3     7     1
 -0.0094871864     1     3     7     2
 0.0012898990     1     3     7     5
 0.0007383540     1     3     7     6
 -0.0041524434     1     3     7     7
 -0.0002188420     1     3     7     8
 -0.0008729647     1     3     7     9
 -0.0030410893     1     3     7    11
 -0.0001719212     1     3     7    12
 -0.0013253666     1     3     7    14
 0.0027008841     1     3     7    15
 -0.0014389354     1     3     8     1
 -0.0001107398     1     3     8     2
 -0.0010505803     1     3     8     5
 0.0006021957     1     3     8     6
 -0.0000762261     1     3     8     7
 0.0004062841     1     3     8     8
 -0.0004545448     1     3     8     9
 0.0001394157     1     3     8    11
 -0.0000780842     1     3     8    12
 0.0002101202     1     3     8    14
 0.0002322497     1     3     8    15
 0.0148937476     1     3     9     1
 -0.0012381771     1     3     9     2
 0.0001717675     1     3     9     5
 -0.0009273214     1     3     9     6
 -0.0010211843     1     3     9     7
 -0.0003183265     1     3     9     8
 -0.0000968388     1     3     9     9
 -0.0040748844     1     3     9    11
 0.0010650561     1     3     9    12
 -0.0020364679     1     3     9    14
 0.0007236891     1     3     9    15
 0.0036900480     1     3    10     4
 -0.0005034579     1     3    10    10
 0.0017700753     1     3    10    13
 -0.0005708883     1     3    10    16
 -0.2699954035     1     3    11     1
 -0.0190973799     1     3    11     2
 0.0004139302     1     3    11     5
 0.0033501043     1     3    11     6
 -0.0062279640     1     3    11     7
 -0.0004063838     1     3    11     8
 -0.0044556978     1     3    11     9
 -0.0057831754     1     3    11    11
 -0.0035807307     1     3    11    12
 -0.0018150117     1     3    11    14
 0.0064925857     1     3    11    15
 0.0618387165     1     3    12     1
 0.0024038745     1     3    12     2
 -0.0018644335     1     3    12     5
 0.0015119362     1     3    12     6
 0.0009991975     1     3    12     7
 -0.0003567422     1     3    12     8
 0.0010603972     1     3    12     9
 -0.0023544938     1     3    12    11
 -0.0002482357     1     3    12    12
 0.0034801770     1     3    12    14
 -0.0006414192     1     3    12    15
 -0.0053659645     1     3    13     4
 0.0027193290     1     3    13    10
 -0.0047871879     1     3    13    13
 -0.0009227425     1     3    13    16
 -0.0172836693     1     3    14     1
 -0.0023614707     1     3    14     2
 0.0047562759     1     3    14     5
 -0.0033599413     1     3    14     6
 -0.0011377635     1     3    14     7
 0.0005109221     1     3    14     8
 -0.0013693260     1     3    14     9
 -0.0006382594     1     3    14    11
 0.0021072799     1     3    14    12
 -0.0041894750     1     3    14    14
 0.0011436172     1     3    14    15
 0.0076980946     1     3    15     1
 0.0030703035     1     3    15     2
 0.0001927151     1     3    15     5
 -0.0005401000     1     3    15     6
 0.0009494009     1     3    15     7
 0.0000628513     1     3    15     8
 0.0006513817     1     3    15     9
 0.0008837020     1     3    15    11
 -0.0003217590     1     3    15    12
 0.0019245808     1     3    15    14
 -0.0015228406     1     3    15    15
 0.0010065677     1     3    16     4
 0.0005892018     1     3    16    10
 -0.0028706849     1     3    16    13
 -0.0013150609     1     3    16    16
 -0.0025140927     1     4     2    10
 0.0043650871     1     4     2    13
 -0.0006044364     1     4     2    16
 0.0011809042     1     4     3    10
 0.0010277882     1     4     3    13
 0.0036674553     1     4     3    16
 -1.0181486474     1     4     4     1
 -0.0440833289     1     4     4     2
 0.0126599144     1     4     4     3
 0.0036276743     1     4     4     5
 0.0054765010     1     4     4     6
 -0.0060129671     1     4     4     7
 -0.0011417077     1     4     4     8
 -0.0067990515     1     4     4     9
 -0.0008449835     1     4     4    11
 -0.0070963799     1     4     4    12
 -0.0039972386     1     4     4    14
 0.0100654869     1     4     4    15
 -0.0013016857     1     4     5    10
 -0.0007706541     1     4     5    13
 0.0008440983     1     4     5    16
 -0.0000498182     1     4     6    10
 0.0004399748     1     4     6    13
 -0.0000580289     1     4     6    16
 0.0009119862     1     4     7    10
 -0.0013765664     1     4     7    13
 0.0004878480     1     4     7    16
 -0.0005333492     1     4     8    10
 0.0003091199     1     4     8    13
 -0.0003911861     1     4     8    16
 -0.0004380881     1     4     9    10
 0.0008762410     1     4     9    13
 -0.0002604651     1     4     9    16
 0.2015043802     1     4    10     1
 0.0132176158     1     4    10     2
 -0.0036900480     1     4    10     3
 -0.0018470426     1     4    10     5
 -0.0027181925     1     4    10     6
 0.0029026178     1     4    10     7
 0.0000068759     1     4    10     8
 0.0019211135     1     4    10     9
 -0.0004391301     1     4    10    11
 0.0026798458     1     4    10    12
 0.0003996630     1     4    10    14
 -0.0048073352     1     4    10    15
 -0.0006542133     1     4    11    10
 0.0009006099     1     4    11    13
 -0.0005502672     1     4    11    16
 -0.0001994628     1     4    12    10
 0.0004871805     1     4    12    13
 0.0001630991     1     4    12    16
 -0.2628909484     1     4    13     1
 -0.0177539484     1     4    13     2
 0.0053659645     1     4    13     3
 0.0014830242     1     4    13     5
 0.0025473186     1     4    13     6
 -0.0050793315     1     4    13     7
 -0.0001651395     1     4    13     8
 -0.0026582960     1     4    13     9
 -0.0007544460     1     4    13    11
 -0.0026642757     1     4    13    12
 -0.0025739934     1     4    13    14
 0.0061000689     1     4    13    15
 -0.0003398432     1     4    14    10
 0.0001350046     1     4    14    13
 0.0001696152     1     4    14    16
 -0.0011379187     1     4    15    10
 0.0008612214     1     4    15    13
 -0.0003571342     1     4    15    16
 0.0709361712     1     4    16     1
 0.0047637121     1     4    16     2
 -0.0010065677     1     4    16     3
 -0.0003728849     1     4    16     5
 -0.0005752727     1     4    16     6
 0.0004083174     1     4    16     7
 -0.0003229594     1     4    16     8
 0.0005936944     1     4    16     9
 -0.0025461960     1     4    16    11
 0.0012336793     1     4    16    12
 0.0008266326     1     4    16    14
 -0.0013429202     1     4    16    15
 0.0471069734     1     5     2     1
 -0.0002304077     1     5     2     2
 -0.0005520477     1     5     2     3
 -0.0007247219     1     5     2     6
 -0.0003134452     1     5     2     7
 0.0002846516     1     5     2     8
 -0.0004548997     1     5     2     9
 0.0006497766     1     5     2    11
 0.0015785803     1     5     2    12
 -0.0036701741     1     5     2    14
 0.0000970448     1     5     2    15
 -0.0621761171     1     5     3     1
 -0.0036561602     1     5     3     2
 -0.0017377937     1     5     3     3
 0.0010353992     1     5     3     6
 -0.0010383424     1     5     3     7
 -0.0006925054     1     5     3     8
 -0.0007268126     1     5     3     9
 -0.0016415929     1     5     3    11
 0.0007850064     1     5     3    12
 0.0006648485     1     5     3    14
 0.0025605495     1     5     3    15
 -0.0036276743     1     5     4     4
 0.0005453569     1     5     4    10
 -0.0022536783     1     5     4    13
 0.0012169832     1     5     4    16
 -0.6875464842     1     5     5     1
 -0.0229077953     1     5     5     2
 0.0060822750     1     5     5     3
 0.0016827344     1     5     5     6
 -0.0033320900     1     5     5     7
 0.0004980051     1     5     5     8
 -0.0037917404     1     5     5     9
 -0.0012269306     1     5     5    11
 -0.0024704226     1     5     5    12
 -0.0012695312     1     5     5    14
 0.0035670196     1     5     5    15
 0.3258428901     1     5     6     1
 0.0179181413     1     5     6     2
 -0.0054977716     1     5     6     3
 -0.0051873644     1     5     6     6
 0.0020005604     1     5     6     7
 0.0008315453     1     5     6     8
 0.0025351067     1     5     6     9
 0.0005787231     1     5     6    11
 0.0035480393     1     5     6    12
 -0.0012250175     1     5     6    14
 -0.0033800358     1     5     6    15
 0.0394763838     1     5     7     1
 0.0013326438     1     5     7     2
 -0.0012898990     1     5     7     3
 -0.0004989407     1     5     7     6
 -0.0000634760     1     5     7     7
 0.0001871061     1     5     7     8
 0.0003415815     1     5     7     9
 -0.0009507901     1     5     7    11
 0.0001058873     1     5     7    12
 0.0007647635     1     5     7    14
 -0.0001215764     1     5     7    15
 -0.0410748705     1     5     8     1
 -0.0033169414     1     5     8     2
 0.0010505803     1     5     8     3
 0.0016188903     1     5     8     6
 -0.0000654021     1     5     8     7
 -0.0016097193     1     5     8     8
 -0.0005983725     1     5     8     9
 0.0002628372     1     5     8    11
 -0.0011604598     1     5     8    12
 0.0006824473     1     5     8    14
 0.0009674882     1     5     8    15
 0.0400008822     1     5     9     1
 0.0020508758     1     5     9     2
 -0.0001717675     1     5     9     3
 -0.0006312925     1     5     9     6
 0.0006464509     1     5     9     7
 -0.0000711963     1     5     9     8
 -0.0007774451     1     5     9     9
 0.0008845084     1     5     9    11
 0.0015945159     1     5     9    12
 -0.0003074996     1     5     9    14
 -0.0006182678     1     5     9    15
 0.0018470426     1     5    10     4
 -0.0025730998     1     5    10    10
 0.0005347639     1     5    10    13
 0.0001303769     1     5    10    16
 -0.0771873911     1     5    11     1
 -0.0050209555     1     5    11     2
 -0.0004139302     1     5    11     3
 0.0007822722     1     5    11     6
 -0.0018391467     1     5    11     7
 0.0000508919     1     5    11     8
 -0.0006512210     1     5    11     9
 -0.0011499521     1     5    11    11
 -0.0006605075     1     5    11    12
 -0.0016420508     1     5    11    14
 0.0016414987     1     5    11    15
 -0.0835986656     1     5    12     1
 -0.0062995159     1     5    12     2
 0.0018644335     1     5    12     3
 0.0017679036     1     5    12     6
 -0.0016653014     1     5    12     7
 -0.0004737912     1     5    12     8
 0.0000656778     1     5    12     9
 -0.0013845475     1     5    12    11
 -0.0017845995     1     5    12    12
 0.0002617269     1     5    12    14
 0.0026401389     1     5    12    15
 -0.0014830242     1     5    13     4
 -0.0003746880     1     5    13    10
 -0.0008265847     1     5    13    13
 0.0001635907     1     5    13    16
 0.2313656340     1     5    14     1
 0.0152864221     1     5    14     2
 -0.0047562759     1     5    14     3
 -0.0036223043     1     5    14     6
 0.0033571681     1     5    14     7
 0.0003694671     1     5    14     8
 0.0025993758     1     5    14     9
 -0.0005627360     1     5    14    11
 0.0030862489     1     5    14    12
 0.0007571374     1     5    14    14
 -0.0053568315     1     5    14    15
 -0.0065398171     1     5    15     1
 0.0015523168     1     5    15     2
 -0.0001927151     1     5    15     3
 -0.0009510425     1     5    15     6
 -0.0002118678     1     5    15     7
 0.0004556296     1     5    15     8
 0.0000486455     1     5    15     9
 -0.0004015012     1     5    15    11
 0.0016948459     1     5    15    12
 -0.0025732015     1     5    15    14
 -0.0013861229     1     5    15    15
 0.0003728849     1     5    16     4
 0.0005992841     1     5    16    10
 -0.0001528749     1     5    16    13
 0.0000304875     1     5    16    16
 0.0678586453     1     6     2     1
 -0.0006087116     1     6     2     2
 -0.0006451355     1     6     2     3
 0.0007247219     1     6     2     5
 -0.0001183372     1     6     2     7
 -0.0001306733     1     6     2     8
 0.0002603731     1     6     2     9
 -0.0006372131     1     6     2    11
 -0.0011023009     1     6     2    12
 0.0023874603     1     6     2    14
 0.0000816210     1     6     2    15
 -0.0530868154     1     6     3     1
 -0.0022924131     1     6     3     2
 -0.0032041966     1     6     3     3
 -0.0010353992     1     6     3     5
 -0.0012659904     1     6     3     7
 0.0003391222     1     6     3     8
 0.0004389439     1     6     3     9
 -0.0023033575     1     6     3    11
 -0.0007567386     1     6     3    12
 -0.0005538403     1     6     3    14
 -0.0004902323     1     6     3    15
 -0.0054765010     1     6     4     4
 0.0026683743     1     6     4    10
 -0.0021073438     1     6     4    13
 0.0005172438     1     6     4    16
 0.3258428901     1     6     5     1
 0.0186428632     1     6     5     2
 -0.0065331708     1     6     5     3
 -0.0016827344     1     6     5     5
 0.0024995011     1     6     5     7
 -0.0007873450     1     6     5     8
 0.0031663992     1     6     5     9
 -0.0002035491     1     6     5    11
 0.0017801357     1     6     5    12
 0.0023972868     1     6     5    14
 -0.0024289933     1     6     5    15
 -0.5207253913     1     6     6     1
 -0.0155875946     1     6     6     2
 0.0037990265     1     6     6     3
 0.0051873644     1     6     6     5
 -0.0025497192     1     6     6     7
 0.0001607468     1     6     6     8
 -0.0027332328     1     6     6     9
 -0.0002065408     1     6     6    11
 -0.0012337358     1     6     6    12
 -0.0033997343     1     6     6    14
 0.0025399359     1     6     6    15
 -0.0195855553     1     6     7     1
 -0.0026569752     1     6     7     2
 -0.0007383540     1     6     7     3
 0.0004989407     1     6     7     5
 -0.0011229446     1     6     7     7
 -0.0001112575     1     6     7     8
 -0.0005310094     1     6     7     9
 -0.0007740178     1     6     7    11
 0.0002196117     1     6     7    12
 -0.0014021395     1     6     7    14
 0.0006454544     1     6     7    15
 0.0818306829     1     6     8     1
 0.0028722541     1     6     8     2
 -0.0006021957     1     6     8     3
 -0.0016188903     1     6     8     5
 0.0003079618     1     6     8     7
 0.0011491636     1     6     8     8
 0.0006157988     1     6     8     9
 -0.0002463557     1     6     8    11
 0.0004121860     1     6     8    12
 0.0007453590     1     6     8    14
 -0.0007323275     1     6     8    15
 -0.0113762456     1     6     9     1
 -0.0017482134     1     6     9     2
 0.0009273214     1     6     9     3
 0.0006312925     1     6     9     5
 -0.0004961103     1     6     9     7
 0.0001073885     1     6     9     8
 0.0006177998     1     6     9     9
 -0.0006727577     1     6     9    11
 -0.0010719632     1     6     9    12
 -0.0003859977     1     6     9    14
 0.0004951300     1     6     9    15
 0.0027181925     1     6    10     4
 0.0007401619     1     6    10    10
 0.0016295073     1     6    10    13
 -0.0006689105     1     6    10    16
 0.0167015010     1     6    11     1
 0.0010936201     1     6    11     2
 -0.0033501043     1     6    11     3
 -0.0007822722     1     6    11     5
 -0.0003897913     1     6    11     7
 -0.0001868678     1     6    11     8
 -0.0001363247     1     6    11     9
 -0.0024092165     1     6    11    11
 0.0002358236     1     6    11    12
 0.0012188740     1     6    11    14
 -0.0000673565     1     6    11    15
 0.1127419081     1     6    12     1
 0.0057031723     1     6    12     2
 -0.0015119362     1     6    12     3
 -0.0017679036     1     6    12     5
 0.0017323855     1     6    12     7
 0.0000960455     1     6    12     8
 0.0002655489     1     6    12     9
 0.0006643600     1     6    12    11
 0.0009251519     1     6    12    12
 0.0015445133     1     6    12    14
 -0.0022099934     1     6    12    15
 -0.0025473186     1     6    13     4
 0.0017775611     1     6    13    10
 -0.0014647208     1     6    13    13
 0.0001624982     1     6    13    16
 -0.2069631924     1     6    14     1
 -0.0133589318     1     6    14     2
 0.0033599413     1     6    14     3
 0.0036223043     1     6    14     5
 -0.0035378709     1     6    14     7
 0.0002608613     1     6    14     8
 -0.0027332864     1     6    14     9
 0.0004112502     1     6    14    11
 -0.0011920773     1     6    14    12
 -0.0038652805     1     6    14    14
 0.0045361514     1     6    14    15
 -0.0680706442     1     6    15     1
 -0.0009366834     1     6    15     2
 0.0005401000     1     6    15     3
 0.0009510425     1     6    15     5
 0.0003193363     1     6    15     7
 -0.0002258238     1     6    15     8
 -0.0000355825     1     6    15     9
 0.0008469082     1     6    15    11
 -0.0011781480     1     6    15    12
 0.0016893446     1     6    15    14
 0.0008532324     1     6    15    15
 0.0005752727     1     6    16     4
 -0.0006919100     1     6    16    10
 0.0001338936     1     6    16    13
 -0.0002919533     1     6    16    16
 -0.1178047284     1     7     2     1
 -0.0024377860     1     7     2     2
 -0.0004058720     1     7     2     3
 0.0003134452     1     7     2     5
 0.0001183372     1     7     2     6
 -0.0000340981     1     7     2     8
 0.0000291962     1     7     2     9
 0.0009836567     1     7     2    11
 -0.0003904462     1     7     2    12
 0.0003348584     1     7     2    14