&FCI NORB=  7,NELEC= 10,MS2=0,
 ORBSYM=1,1,1,1,1,1,1
 ISYM=1,
&END
 0.9848193806     1     1     2     2
 0.0656681154     1     1     2     4
 0.0804964129     1     1     2     6
 0.8727201995     1     1     3     3
 -0.0827766455     1     1     3     7
 0.0656681154     1     1     4     2
 0.9471641031     1     1     4     4
 -0.0428946381     1     1     4     6
 0.9887111893     1     1     5     5
 0.0804964129     1     1     6     2
 -0.0428946381     1     1     6     4
 0.2482645943     1     1     6     6
 -0.0827766455     1     1     7     3
 0.2103545629     1     1     7     7
 -0.9848193806     1     2     2     1
 -0.0071125963     1     2     2     4
 0.0007092394     1     2     2     6
 0.0313940101     1     2     3     3
 -0.0064334046     1     2     3     7
 -0.0656681154     1     2     4     1
 0.0359511867     1     2     4     4
 -0.0043886802     1     2     4     6
 0.0404409481     1     2     5     5
 -0.0804964129     1     2     6     1
 -0.0040460077     1     2     6     4
 0.0007318135     1     2     6     6
 -0.0045589693     1     2     7     3
 0.0013542614     1     2     7     7
 -0.0012931492     1     3     2     7
 -0.8727201995     1     3     3     1
 -0.0313940101     1     3     3     2
 -0.0106032628     1     3     3     4
 -0.0029683066     1     3     3     6
 0.0004625867     1     3     4     7
 0.0012436930     1     3     6     7
 0.0827766455     1     3     7     1
 0.0045589693     1     3     7     2
 0.0016197418     1     3     7     4
 0.0019761853     1     3     7     6
 -0.0656681154     1     4     2     1
 0.0071125963     1     4     2     2
 0.0001250223     1     4     2     6
 0.0106032628     1     4     3     3
 -0.0012783734     1     4     3     7
 -0.9471641031     1     4     4     1
 -0.0359511867     1     4     4     2
 -0.0056341815     1     4     4     6
 0.0134861426     1     4     5     5
 0.0428946381     1     4     6     1
 0.0040460077     1     4     6     2
 0.0020133955     1     4     6     6
 -0.0016197418     1     4     7     3
 0.0010017444     1     4     7     7
 -0.9887111893     1     5     5     1
 -0.0404409481     1     5     5     2
 -0.0134861426     1     5     5     4
 -0.0051739953     1     5     5     6
 -0.0804964129     1     6     2     1
 -0.0007092394     1     6     2     2
 -0.0001250223     1     6     2     4
 0.0029683066     1     6     3     3
 -0.0007040460     1     6     3     7
 0.0428946381     1     6     4     1
 0.0043886802     1     6     4     2
 0.0056341815     1     6     4     4
 0.0051739953     1     6     5     5
 -0.2482645943     1     6     6     1
 -0.0007318135     1     6     6     2
 -0.0020133955     1     6     6     4
 -0.0019761853     1     6     7     3
 0.0003896542     1     6     7     7
 0.0012931492     1     7     2     3
 0.0827766455     1     7     3     1
 0.0064334046     1     7     3     2
 0.0012783734     1     7     3     4
 0.0007040460     1     7     3     6
 -0.0004625867     1     7     4     3
 -0.0012436930     1     7     6     3
 -0.2103545629     1     7     7     1
 -0.0013542614     1     7     7     2
 -0.0010017444     1     7     7     4
 -0.0003896542     1     7     7     6
 -0.9848193806     2     1     1     2
 -0.0656681154     2     1     1     4
 -0.0804964129     2     1     1     6
 0.0313940101     2     1     3     3
 -0.0045589693     2     1     3     7
 -0.0071125963     2     1     4     2
 0.0359511867     2     1     4     4
 -0.0040460077     2     1     4     6
 0.0404409481     2     1     5     5
 0.0007092394     2     1     6     2
 -0.0043886802     2     1     6     4
 0.0007318135     2     1     6     6
 -0.0064334046     2     1     7     3
 0.0013542614     2     1     7     7
 0.9848193806     2     2     1     1
 0.0071125963     2     2     1     4
 -0.0007092394     2     2     1     6
 0.5292537032     2     2     3     3
 -0.0358220611     2     2     3     7
 0.0071125963     2     2     4     1
 0.5496419960     2     2     4     4
 -0.0183528129     2     2     4     6
 0.5745411763     2     2     5     5
 -0.0007092394     2     2     6     1
 -0.0183528129     2     2     6     4
 0.2318302688     2     2     6     6
 -0.0000000002     2     2     6     7
 -0.0358220611     2     2     7     3
 -0.0000000002     2     2     7     6
 0.1998819945     2     2     7     7
 0.0012931492     2     3     1     7
 -0.0313940101     2     3     3     1
 -0.5292537032     2     3     3     2
 -0.0012750910     2     3     3     4
 -0.0376892903     2     3     3     6
 -0.0038859531     2     3     4     7
 0.0000000001     2     3     6     6
 -0.0205354577     2     3     6     7
 0.0064334046     2     3     7     1
 0.0358220611     2     3     7     2
 -0.0010201918     2     3     7     4
 -0.0159979246     2     3     7     6
 0.0656681154     2     4     1     1
 -0.0071125963     2     4     1     2
 -0.0001250223     2     4     1     6
 0.0012750910     2     4     3     3
 -0.0030957494     2     4     3     7
 -0.0359511867     2     4     4     1
 -0.5496419960     2     4     4     2
 -0.0377987690     2     4     4     6
 0.0033483168     2     4     5     5
 0.0043886802     2     4     6     1
 0.0183528129     2     4     6     2
 -0.0094135774     2     4     6     6
 -0.0000000001     2     4     6     7
 0.0010201918     2     4     7     3
 -0.0000000001     2     4     7     6
 -0.0069545246     2     4     7     7
 -0.0404409481     2     5     5     1
 -0.5745411763     2     5     5     2
 -0.0033483168     2     5     5     4
 -0.0380732739     2     5     5     6
 0.0804964129     2     6     1     1
 0.0007092394     2     6     1     2
 0.0001250223     2     6     1     4
 0.0376892903     2     6     3     3
 -0.0047098587     2     6     3     7
 0.0040460077     2     6     4     1
 0.0183528129     2     6     4     2
 0.0377987690     2     6     4     4
 0.0380732739     2     6     5     5
 -0.0007318135     2     6     6     1
 -0.2318302688     2     6     6     2
 -0.0000000001     2     6     6     3
 0.0094135774     2     6     6     4
 -0.0000000001     2     6     6     7
 0.0000000002     2     6     7     2
 0.0159979246     2     6     7     3
 0.0000000001     2     6     7     4
 0.0018556567     2     6     7     7
 -0.0012931492     2     7     1     3
 0.0045589693     2     7     3     1
 0.0358220611     2     7     3     2
 0.0030957494     2     7     3     4
 0.0047098587     2     7     3     6
 0.0038859531     2     7     4     3
 0.0000000002     2     7     6     2
 0.0205354577     2     7     6     3
 0.0000000001     2     7     6     4
 0.0000000001     2     7     6     6
 -0.0013542614     2     7     7     1
 -0.1998819945     2     7     7     2
 0.0069545246     2     7     7     4
 -0.0018556567     2     7     7     6
 -0.8727201995     3     1     1     3
 0.0827766455     3     1     1     7
 -0.0313940101     3     1     2     3
 0.0045589693     3     1     2     7
 -0.0106032628     3     1     4     3
 0.0016197418     3     1     4     7
 -0.0029683066     3     1     6     3
 0.0019761853     3     1     6     7
 -0.0012931492     3     1     7     2
 0.0004625867     3     1     7     4
 0.0012436930     3     1     7     6
 -0.0313940101     3     2     1     3
 0.0064334046     3     2     1     7
 -0.5292537032     3     2     2     3
 0.0358220611     3     2     2     7
 -0.0012750910     3     2     4     3
 -0.0010201918     3     2     4     7
 -0.0376892903     3     2     6     3
 0.0000000001     3     2     6     6
 -0.0159979246     3     2     6     7
 0.0012931492     3     2     7     1
 -0.0038859531     3     2     7     4
 -0.0205354577     3     2     7     6
 0.8727201995     3     3     1     1
 0.0313940101     3     3     1     2
 0.0106032628     3     3     1     4
 0.0029683066     3     3     1     6
 0.0313940101     3     3     2     1
 0.5292537032     3     3     2     2
 0.0012750910     3     3     2     4
 0.0376892903     3     3     2     6
 0.0106032628     3     3     4     1
 0.0012750910     3     3     4     2
 0.5623044837     3     3     4     4
 -0.0209423936     3     3     4     6
 0.5835108716     3     3     5     5
 0.0029683066     3     3     6     1
 0.0376892903     3     3     6     2
 -0.0209423936     3     3     6     4
 0.2334984300     3     3     6     6
 0.0000000001     3     3     6     7
 0.1975726522     3     3     7     7
 -0.0106032628     3     4     1     3
 0.0012783734     3     4     1     7
 -0.0012750910     3     4     2     3
 0.0030957494     3     4     2     7
 -0.5623044837     3     4     4     3
 0.0431063981     3     4     4     7
 0.0209423936     3     4     6     3
 0.0021473147     3     4     6     7
 -0.0004625867     3     4     7     1
 0.0038859531     3     4     7     2
 0.0051312990     3     4     7     6
 -0.5835108716     3     5     5     3
 0.0446691046     3     5     5     7
 -0.0029683066     3     6     1     3
 0.0007040460     3     6     1     7
 -0.0376892903     3     6     2     3
 0.0047098587     3     6     2     7
 0.0209423936     3     6     4     3
 -0.0030258245     3     6     4     7
 -0.0000000001     3     6     6     2
 -0.2334984300     3     6     6     3
 0.0102121886     3     6     6     7
 -0.0012436930     3     6     7     1
 0.0205354577     3     6     7     2
 -0.0051312990     3     6     7     4
 -0.0827766455     3     7     1     1
 -0.0064334046     3     7     1     2
 -0.0012783734     3     7     1     4
 -0.0007040460     3     7     1     6
 -0.0045589693     3     7     2     1
 -0.0358220611     3     7     2     2
 -0.0030957494     3     7     2     4
 -0.0047098587     3     7     2     6
 -0.0016197418     3     7     4     1
 0.0010201918     3     7     4     2
 -0.0431063981     3     7     4     4
 0.0030258245     3     7     4     6
 -0.0446691046     3     7     5     5
 -0.0019761853     3     7     6     1
 0.0159979246     3     7     6     2
 -0.0000000001     3     7     6     3
 -0.0021473147     3     7     6     4
 -0.0102121886     3     7     6     6
 -0.1975726522     3     7     7     3
 -0.0656681154     4     1     1     2
 -0.9471641031     4     1     1     4
 0.0428946381     4     1     1     6
 0.0071125963     4     1     2     2
 -0.0359511867     4     1     2     4
 0.0040460077     4     1     2     6
 0.0106032628     4     1     3     3
 -0.0016197418     4     1     3     7
 0.0134861426     4     1     5     5
 0.0001250223     4     1     6     2
 -0.0056341815     4     1     6     4
 0.0020133955     4     1     6     6
 -0.0012783734     4     1     7     3
 0.0010017444     4     1     7     7
 0.0656681154     4     2     1     1
 -0.0359511867     4     2     1     4
 0.0043886802     4     2     1     6
 -0.0071125963     4     2     2     1
 -0.5496419960     4     2     2     4
 0.0183528129     4     2     2     6
 0.0012750910     4     2     3     3
 0.0010201918     4     2     3     7
 0.0033483168     4     2     5     5
 -0.0001250223     4     2     6     1
 -0.0377987690     4     2     6     4
 -0.0094135774     4     2     6     6
 -0.0000000001     4     2     6     7
 -0.0030957494     4     2     7     3
 -0.0000000001     4     2     7     6
 -0.0069545246     4     2     7     7
 -0.0004625867     4     3     1     7
 0.0038859531     4     3     2     7
 -0.0106032628     4     3     3     1
 -0.0012750910     4     3     3     2
 -0.5623044837     4     3     3     4
 0.0209423936     4     3     3     6
 0.0051312990     4     3     6     7
 0.0012783734     4     3     7     1
 0.0030957494     4     3     7     2
 0.0431063981     4     3     7     4
 0.0021473147     4     3     7     6
 0.9471641031     4     4     1     1
 0.0359511867     4     4     1     2
 0.0056341815     4     4     1     6
 0.0359511867     4     4     2     1
 0.5496419960     4     4     2     2
 0.0377987690     4     4     2     6
 0.5623044837     4     4     3     3
 -0.0431063981     4     4     3     7
 0.6002732640     4     4     5     5
 0.0056341815     4     4     6     1
 0.0377987690     4     4     6     2
 0.2241137609     4     4     6     6
 -0.0000000001     4     4     6     7
 -0.0431063981     4     4     7     3
 -0.0000000001     4     4     7     6
 0.1947072635     4     4     7     7
 -0.0134861426     4     5     5     1
 -0.0033483168     4     5     5     2
 -0.6002732640     4     5     5     4
 0.0242107888     4     5     5     6
 0.0000000001     4     5     5     7
 -0.0428946381     4     6     1     1
 -0.0043886802     4     6     1     2
 -0.0056341815     4     6     1     4
 -0.0040460077     4     6     2     1
 -0.0183528129     4     6     2     2
 -0.0377987690     4     6     2     4
 -0.0209423936     4     6     3     3
 0.0030258245     4     6     3     7
 -0.0242107888     4     6     5     5
 -0.0020133955     4     6     6     1
 0.0094135774     4     6     6     2
 -0.2241137609     4     6     6     4
 0.0000000001     4     6     7     2
 -0.0021473147     4     6     7     3
 0.0000000001     4     6     7     4
 -0.0012284762     4     6     7     7
 0.0004625867     4     7     1     3
 -0.0038859531     4     7     2     3
 0.0016197418     4     7     3     1
 -0.0010201918     4     7     3     2
 0.0431063981     4     7     3     4
 -0.0030258245     4     7     3     6
 -0.0000000001     4     7     5     5
 0.0000000001     4     7     6     2
 -0.0051312990     4     7     6     3
 0.0000000001     4     7     6     4
 -0.0010017444     4     7     7     1
 0.0069545246     4     7     7     2
 -0.1947072635     4     7     7     4
 0.0012284762     4     7     7     6
 -0.9887111893     5     1     1     5
 -0.0404409481     5     1     2     5
 -0.0134861426     5     1     4     5
 -0.0051739953     5     1     6     5
 -0.0404409481     5     2     1     5
 -0.5745411763     5     2     2     5
 -0.0033483168     5     2     4     5
 -0.0380732739     5     2     6     5
 -0.5835108716     5     3     3     5
 0.0446691046     5     3     7     5
 -0.0134861426     5     4     1     5
 -0.0033483168     5     4     2     5
 -0.6002732640     5     4     4     5
 0.0242107888     5     4     6     5
 0.0000000001     5     4     7     5
 0.9887111893     5     5     1     1
 0.0404409481     5     5     1     2
 0.0134861426     5     5     1     4
 0.0051739953     5     5     1     6
 0.0404409481     5     5     2     1
 0.5745411763     5     5     2     2
 0.0033483168     5     5     2     4
 0.0380732739     5     5     2     6
 0.5835108716     5     5     3     3
 -0.0446691046     5     5     3     7
 0.0134861426     5     5     4     1
 0.0033483168     5     5     4     2
 0.6002732640     5     5     4     4
 -0.0242107888     5     5     4     6
 -0.0000000001     5     5     4     7
 0.0051739953     5     5     6     1
 0.0380732739     5     5     6     2
 -0.0242107888     5     5     6     4
 0.2289982571     5     5     6     6
 -0.0000000006     5     5     6     7
 -0.0446691046     5     5     7     3
 -0.0000000001     5     5     7     4
 -0.0000000006     5     5     7     6
 0.1961051110     5     5     7     7
 -0.0051739953     5     6     1     5
 -0.0380732739     5     6     2     5
 0.0242107888     5     6     4     5
 -0.2289982571     5     6     6     5
 0.0000000006     5     6     7     5
 0.0446691046     5     7     3     5
 0.0000000001     5     7     4     5
 0.0000000006     5     7     6     5
 -0.1961051110     5     7     7     5
 -0.0804964129     6     1     1     2
 0.0428946381     6     1     1     4
 -0.2482645943     6     1     1     6
 -0.0007092394     6     1     2     2
 0.0043886802     6     1     2     4
 -0.0007318135     6     1     2     6
 0.0029683066     6     1     3     3
 -0.0019761853     6     1     3     7
 -0.0001250223     6     1     4     2
 0.0056341815     6     1     4     4
 -0.0020133955     6     1     4     6
 0.0051739953     6     1     5     5
 -0.0007040460     6     1     7     3
 0.0003896542     6     1     7     7
 0.0804964129     6     2     1     1
 0.0040460077     6     2     1     4
 -0.0007318135     6     2     1     6
 0.0007092394     6     2     2     1
 0.0183528129     6     2     2     4
 -0.2318302688     6     2     2     6
 0.0000000002     6     2     2     7
 0.0376892903     6     2     3     3
 -0.0000000001     6     2     3     6
 0.0159979246     6     2     3     7
 0.0001250223     6     2     4     1
 0.0377987690     6     2     4     4
 0.0094135774     6     2     4     6
 0.0000000001     6     2     4     7
 0.0380732739     6     2     5     5
 -0.0047098587     6     2     7     3
 -0.0000000001     6     2     7     6
 0.0018556567     6     2     7     7
 -0.0012436930     6     3     1     7
 -0.0000000001     6     3     2     6
 0.0205354577     6     3     2     7
 -0.0029683066     6     3     3     1
 -0.0376892903     6     3     3     2
 0.0209423936     6     3     3     4
 -0.2334984300     6     3     3     6
 -0.0000000001     6     3     3     7
 -0.0051312990     6     3     4     7
 0.0007040460     6     3     7     1
 0.0047098587     6     3     7     2
 -0.0030258245     6     3     7     4
 0.0102121886     6     3     7     6
 -0.0428946381     6     4     1     1
 -0.0040460077     6     4     1     2
 -0.0020133955     6     4     1     6
 -0.0043886802     6     4     2     1
 -0.0183528129     6     4     2     2
 0.0094135774     6     4     2     6
 0.0000000001     6     4     2     7
 -0.0209423936     6     4     3     3
 -0.0021473147     6     4     3     7
 -0.0056341815     6     4     4     1
 -0.0377987690     6     4     4     2
 -0.2241137609     6     4     4     6
 0.0000000001     6     4     4     7
 -0.0242107888     6     4     5     5
 0.0030258245     6     4     7     3
 -0.0012284762     6     4     7     7
 -0.0051739953     6     5     5     1
 -0.0380732739     6     5     5     2
 0.0242107888     6     5     5     4
 -0.2289982571     6     5     5     6
 0.0000000006     6     5     5     7
 0.2482645943     6     6     1     1
 0.0007318135     6     6     1     2
 0.0020133955     6     6     1     4
 0.0007318135     6     6     2     1
 0.2318302688     6     6     2     2
 0.0000000001     6     6     2     3
 -0.0094135774     6     6     2     4
 0.0000000001     6     6     2     7
 0.0000000001     6     6     3     2
 0.2334984300     6     6     3     3
 -0.0102121886     6     6     3     7
 0.0020133955     6     6     4     1
 -0.0094135774     6     6     4     2
 0.2241137609     6     6     4     4
 0.2289982571     6     6     5     5
 0.0000000001     6     6     7     2
 -0.0102121886     6     6     7     3
 0.1377596679     6     6     7     7
 0.0012436930     6     7     1     3
 -0.0000000002     6     7     2     2
 -0.0205354577     6     7     2     3
 -0.0000000001     6     7     2     4
 -0.0000000001     6     7     2     6
 0.0019761853     6     7     3     1
 -0.0159979246     6     7     3     2
 0.0000000001     6     7     3     3
 0.0021473147     6     7     3     4
 0.0102121886     6     7     3     6
 -0.0000000001     6     7     4     2
 0.0051312990     6     7     4     3
 -0.0000000001     6     7     4     4
 -0.0000000006     6     7     5     5
 -0.0003896542     6     7     7     1
 -0.0018556567     6     7     7     2
 0.0012284762     6     7     7     4
 -0.1377596679     6     7     7     6
 0.0827766455     7     1     1     3
 -0.2103545629     7     1     1     7
 0.0064334046     7     1     2     3
 -0.0013542614     7     1     2     7
 0.0012931492     7     1     3     2
 -0.0004625867     7     1     3     4
 -0.0012436930     7     1     3     6
 0.0012783734     7     1     4     3
 -0.0010017444     7     1     4     7
 0.0007040460     7     1     6     3
 -0.0003896542     7     1     6     7
 0.0045589693     7     2     1     3
 -0.0013542614     7     2     1     7
 0.0358220611     7     2     2     3
 0.0000000002     7     2     2     6
 -0.1998819945     7     2     2     7
 -0.0012931492     7     2     3     1
 0.0038859531     7     2     3     4
 0.0205354577     7     2     3     6
 0.0030957494     7     2     4     3
 0.0000000001     7     2     4     6
 0.0069545246     7     2     4     7
 0.0047098587     7     2     6     3
 0.0000000001     7     2     6     6
 -0.0018556567     7     2     6     7
 -0.0827766455     7     3     1     1
 -0.0045589693     7     3     1     2
 -0.0016197418     7     3     1     4
 -0.0019761853     7     3     1     6
 -0.0064334046     7     3     2     1
 -0.0358220611     7     3     2     2
 0.0010201918     7     3     2     4
 0.0159979246     7     3     2     6
 -0.1975726522     7     3     3     7
 -0.0012783734     7     3     4     1
 -0.0030957494     7     3     4     2
 -0.0431063981     7     3     4     4
 -0.0021473147     7     3     4     6
 -0.0446691046     7     3     5     5
 -0.0007040460     7     3     6     1
 -0.0047098587     7     3     6     2
 0.0030258245     7     3     6     4
 -0.0102121886     7     3     6     6
 0.0016197418     7     4     1     3
 -0.0010017444     7     4     1     7
 -0.0010201918     7     4     2     3
 0.0000000001     7     4     2     6
 0.0069545246     7     4     2     7
 0.0004625867     7     4     3     1
 -0.0038859531     7     4     3     2
 -0.0051312990     7     4     3     6
 0.0431063981     7     4     4     3
 0.0000000001     7     4     4     6
 -0.1947072635     7     4     4     7
 -0.0000000001     7     4     5     5
 -0.0030258245     7     4     6     3
 0.0012284762     7     4     6     7
 0.0446691046     7     5     5     3
 0.0000000001     7     5     5     4
 0.0000000006     7     5     5     6
 -0.1961051110     7     5     5     7
 0.0019761853     7     6     1     3
 -0.0003896542     7     6     1     7
 -0.0000000002     7     6     2     2
 -0.0159979246     7     6     2     3
 -0.0000000001     7     6     2     4
 -0.0018556567     7     6     2     7
 0.0012436930     7     6     3     1
 -0.0205354577     7     6     3     2
 0.0051312990     7     6     3     4
 -0.0000000001     7     6     4     2
 0.0021473147     7     6     4     3
 -0.0000000001     7     6     4     4
 0.0012284762     7     6     4     7
 -0.0000000006     7     6     5     5
 -0.0000000001     7     6     6     2
 0.0102121886     7     6     6     3
 -0.1377596679     7     6     6     7
 0.2103545629     7     7     1     1
 0.0013542614     7     7     1     2
 0.0010017444     7     7     1     4
 0.0003896542     7     7     1     6
 0.0013542614     7     7     2     1
 0.1998819945     7     7     2     2
 -0.0069545246     7     7     2     4
 0.0018556567     7     7     2     6
 0.1975726522     7     7     3     3
 0.0010017444     7     7     4     1
 -0.0069545246     7     7     4     2
 0.1947072635     7     7     4     4
 -0.0012284762     7     7     4     6
 0.1961051110     7     7     5     5
 0.0003896542     7     7     6     1
 0.0018556567     7     7     6     2
 -0.0012284762     7     7     6     4
 0.1377596679     7     7     6     6
0.0 0 0 0 0
 0.9848193806     1     1     2     2
 0.0656681154     1     1     2     4
 0.0804964129     1     1     2     6
 0.8727201995     1     1     3     3
 -0.0827766455     1     1     3     7
 0.0656681154     1     1     4     2
 0.9471641031     1     1     4     4
 -0.0428946381     1     1     4     6
 0.9887111893     1     1     5     5
 0.0804964129     1     1     6     2
 -0.0428946381     1     1     6     4
 0.2482645943     1     1     6     6
 -0.0827766455     1     1     7     3
 0.2103545629     1     1     7     7
 -0.9848193806     1     2     2     1
 -0.0071125963     1     2     2     4
 0.0007092394     1     2     2     6
 0.0313940101     1     2     3     3
 -0.0064334046     1     2     3     7
 -0.0656681154     1     2     4     1
 0.0359511867     1     2     4     4
 -0.0043886802     1     2     4     6
 0.0404409481     1     2     5     5
 -0.0804964129     1     2     6     1
 -0.0040460077     1     2     6     4
 0.0007318135     1     2     6     6
 -0.0045589693     1     2     7     3
 0.0013542614     1     2     7     7
 -0.0012931492     1     3     2     7
 -0.8727201995     1     3     3     1
 -0.0313940101     1     3     3     2
 -0.0106032628     1     3     3     4
 -0.0029683066     1     3     3     6
 0.0004625867     1     3     4     7
 0.0012436930     1     3     6     7
 0.0827766455     1     3     7     1
 0.0045589693     1     3     7     2
 0.0016197418     1     3     7     4
 0.0019761853     1     3     7     6
 -0.0656681154     1     4     2     1
 0.0071125963     1     4     2     2
 0.0001250223     1     4     2     6
 0.0106032628     1     4     3     3
 -0.0012783734     1     4     3     7
 -0.9471641031     1     4     4     1
 -0.0359511867     1     4     4     2
 -0.0056341815     1     4     4     6
 0.0134861426     1     4     5     5
 0.0428946381     1     4     6     1
 0.0040460077     1     4     6     2
 0.0020133955     1     4     6     6
 -0.0016197418     1     4     7     3
 0.0010017444     1     4     7     7
 -0.9887111893     1     5     5     1
 -0.0404409481     1     5     5     2
 -0.0134861426     1     5     5     4
 -0.0051739953     1     5     5     6
 -0.0804964129     1     6     2     1
 -0.0007092394     1     6     2     2
 -0.0001250223     1     6     2     4
 0.0029683066     1     6     3     3
 -0.0007040460     1     6     3     7
 0.0428946381     1     6     4     1
 0.0043886802     1     6     4     2
 0.0056341815     1     6     4     4
 0.0051739953     1     6     5     5
 -0.2482645943     1     6     6     1
 -0.0007318135     1     6     6     2
 -0.0020133955     1     6     6     4
 -0.0019761853     1     6     7     3
 0.0003896542     1     6     7     7
 0.0012931492     1     7     2     3
 0.0827766455     1     7     3     1
 0.0064334046     1     7     3     2
 0.0012783734     1     7     3     4
 0.0007040460     1     7     3     6
 -0.0004625867     1     7     4     3
 -0.0012436930     1     7     6     3
 -0.2103545629     1     7     7     1
 -0.0013542614     1     7     7     2
 -0.0010017444     1     7     7     4
 -0.0003896542     1     7     7     6
 -0.9848193806     2     1     1     2
 -0.0656681154     2     1     1     4
 -0.0804964129     2     1     1     6
 0.0313940101     2     1     3     3
 -0.0045589693     2     1     3     7
 -0.0071125963     2     1     4     2
 0.0359511867     2     1     4     4
 -0.0040460077     2     1     4     6
 0.0404409481     2     1     5     5
 0.0007092394     2     1     6     2
 -0.0043886802     2     1     6     4
 0.0007318135     2     1     6     6
 -0.0064334046     2     1     7     3
 0.0013542614     2     1     7     7
 0.9848193806     2     2     1     1
 0.0071125963     2     2     1     4
 -0.0007092394     2     2     1     6
 0.5292537032     2     2     3     3
 -0.0358220611     2     2     3     7
 0.0071125963     2     2     4     1
 0.5496419960     2     2     4     4
 -0.0183528129     2     2     4     6
 0.5745411763     2     2     5     5
 -0.0007092394     2     2     6     1
 -0.0183528129     2     2     6     4
 0.2318302688     2     2     6     6
 -0.0000000002     2     2     6     7
 -0.0358220611     2     2     7     3
 -0.0000000002     2     2     7     6
 0.1998819945     2     2     7     7
 0.0012931492     2     3     1     7
 -0.0313940101     2     3     3     1
 -0.5292537032     2     3     3     2
 -0.0012750910     2     3     3     4
 -0.0376892903     2     3     3     6
 -0.0038859531     2     3     4     7
 0.0000000001     2     3     6     6
 -0.0205354577     2     3     6     7
 0.0064334046     2     3     7     1
 0.0358220611     2     3     7     2
 -0.0010201918     2     3     7     4
 -0.0159979246     2     3     7     6
 0.0656681154     2     4     1     1
 -0.0071125963     2     4     1     2
 -0.0001250223     2     4     1     6
 0.0012750910     2     4     3     3
 -0.0030957494     2     4     3     7
 -0.0359511867     2     4     4     1
 -0.5496419960     2     4     4     2
 -0.0377987690     2     4     4     6
 0.0033483168     2     4     5     5
 0.0043886802     2     4     6     1
 0.0183528129     2     4     6     2
 -0.0094135774     2     4     6     6
 -0.0000000001     2     4     6     7
 0.0010201918     2     4     7     3
 -0.0000000001     2     4     7     6
 -0.0069545246     2     4     7     7
 -0.0404409481     2     5     5     1
 -0.5745411763     2     5     5     2
 -0.0033483168     2     5     5     4
 -0.0380732739     2     5     5     6
 0.0804964129     2     6     1     1
 0.0007092394     2     6     1     2
 0.0001250223     2     6     1     4
 0.0376892903     2     6     3     3
 -0.0047098587     2     6     3     7
 0.0040460077     2     6     4     1
 0.0183528129     2     6     4     2
 0.0377987690     2     6     4     4
 0.0380732739     2     6     5     5
 -0.0007318135     2     6     6     1
 -0.2318302688     2     6     6     2
 -0.0000000001     2     6     6     3
 0.0094135774     2     6     6     4
 -0.0000000001     2     6     6     7
 0.0000000002     2     6     7     2
 0.0159979246     2     6     7     3
 0.0000000001     2     6     7     4
 0.0018556567     2     6     7     7
 -0.0012931492     2     7     1     3
 0.0045589693     2     7     3     1
 0.0358220611     2     7     3     2
 0.0030957494     2     7     3     4
 0.0047098587     2     7     3     6
 0.0038859531     2     7     4     3
 0.0000000002     2     7     6     2
 0.0205354577     2     7     6     3
 0.0000000001     2     7     6     4
 0.0000000001     2     7     6     6
 -0.0013542614     2     7     7     1
 -0.1998819945     2     7     7     2
 0.0069545246     2     7     7     4
 -0.0018556567     2     7     7     6
 -0.8727201995     3     1     1     3