&FCI NORB=  9,NELEC= 10,MS2=0,
 ORBSYM=1,1,1,1,1,1,1,1,1
 ISYM=1,
&END
 0.9828958989     1     1     2     2
 0.0711977884     1     1     2     4
 -0.1529004376     1     1     2     6
 0.1283689432     1     1     2     9
 0.8594494470     1     1     3     3
 -0.1883305840     1     1     3     7
 0.1269886143     1     1     3     8
 0.0711977884     1     1     4     2
 0.9535850715     1     1     4     4
 0.0866588080     1     1     4     6
 -0.1327013478     1     1     4     9
 1.0053484284     1     1     5     5
 -0.1529004376     1     1     6     2
 0.0866588080     1     1     6     4
 0.3990886238     1     1     6     6
 -0.1605642433     1     1     6     9
 -0.1883305840     1     1     7     3
 0.3924376924     1     1     7     7
 -0.1544107859     1     1     7     8
 0.1269886143     1     1     8     3
 -0.1544107859     1     1     8     7
 0.5538842393     1     1     8     8
 0.1283689432     1     1     9     2
 -0.1327013478     1     1     9     4
 -0.1605642433     1     1     9     6
 0.5746250816     1     1     9     9
 -0.9828958989     1     2     2     1
 -0.0068422072     1     2     2     4
 -0.0016354299     1     2     2     6
 0.0039305569     1     2     2     9
 0.0299602365     1     2     3     3
 -0.0149432573     1     2     3     7
 0.0154853977     1     2     3     8
 -0.0711977884     1     2     4     1
 0.0354764263     1     2     4     4
 0.0088469195     1     2     4     6
 -0.0158947329     1     2     4     9
 0.0407959472     1     2     5     5
 0.1529004376     1     2     6     1
 0.0083038192     1     2     6     4
 0.0028623803     1     2     6     6
 -0.0051633393     1     2     6     9
 -0.0109667643     1     2     7     3
 0.0073280744     1     2     7     7
 -0.0074065467     1     2     7     8
 0.0102225138     1     2     8     3
 -0.0064643280     1     2     8     7
 0.0061316817     1     2     8     8
 -0.1283689432     1     2     9     1
 -0.0126390087     1     2     9     4
 -0.0041296160     1     2     9     6
 0.0069060879     1     2     9     9
 -0.0032086612     1     3     2     7
 0.0047143915     1     3     2     8
 -0.8594494470     1     3     3     1
 -0.0299602365     1     3     3     2
 -0.0104698510     1     3     3     4
 0.0047886572     1     3     3     6
 0.0008268860     1     3     3     9
 0.0018266559     1     3     4     7
 -0.0060789884     1     3     4     8
 -0.0025409057     1     3     6     7
 -0.0003683051     1     3     6     8
 0.1883305840     1     3     7     1
 0.0109667643     1     3     7     2
 0.0041318767     1     3     7     4
 -0.0057588250     1     3     7     6
 0.0029513549     1     3     7     9
 -0.1269886143     1     3     8     1
 -0.0102225138     1     3     8     2
 -0.0034109543     1     3     8     4
 0.0045462372     1     3     8     6
 -0.0085602095     1     3     8     9
 0.0022109114     1     3     9     7
 -0.0048439096     1     3     9     8
 -0.0711977884     1     4     2     1
 0.0068422072     1     4     2     2
 0.0000128811     1     4     2     6
 -0.0025672254     1     4     2     9
 0.0104698510     1     4     3     3
 -0.0024853402     1     4     3     7
 -0.0025502188     1     4     3     8
 -0.9535850715     1     4     4     1
 -0.0354764263     1     4     4     2
 0.0108860632     1     4     4     6
 -0.0128186292     1     4     4     9
 0.0139096781     1     4     5     5
 -0.0866588080     1     4     6     1
 -0.0083038192     1     4     6     2
 0.0054938405     1     4     6     6
 -0.0050780003     1     4     6     9
 -0.0041318767     1     4     7     3
 0.0038757765     1     4     7     7
 -0.0016260283     1     4     7     8
 0.0034109543     1     4     8     3
 -0.0040419471     1     4     8     7
 0.0061006490     1     4     8     8
 0.1327013478     1     4     9     1
 0.0126390087     1     4     9     2
 -0.0068169108     1     4     9     6
 0.0109000656     1     4     9     9
 -1.0053484284     1     5     5     1
 -0.0407959472     1     5     5     2
 -0.0139096781     1     5     5     4
 0.0103153042     1     5     5     6
 -0.0123949296     1     5     5     9
 0.1529004376     1     6     2     1
 0.0016354299     1     6     2     2
 -0.0000128811     1     6     2     4
 -0.0010262584     1     6     2     9
 -0.0047886572     1     6     3     3
 0.0030052661     1     6     3     7
 -0.0047454277     1     6     3     8
 -0.0866588080     1     6     4     1
 -0.0088469195     1     6     4     2
 -0.0108860632     1     6     4     4
 0.0017897331     1     6     4     9
 -0.0103153042     1     6     5     5
 -0.3990886238     1     6     6     1
 -0.0028623803     1     6     6     2
 -0.0054938405     1     6     6     4
 0.0013424837     1     6     6     9
 0.0057588250     1     6     7     3
 -0.0028689864     1     6     7     7
 0.0033836765     1     6     7     8
 -0.0045462372     1     6     8     3
 0.0019732329     1     6     8     7
 -0.0011220310     1     6     8     8
 0.1605642433     1     6     9     1
 0.0041296160     1     6     9     2
 0.0068169108     1     6     9     4
 -0.0002063259     1     6     9     9
 0.0032086612     1     7     2     3
 -0.0009074331     1     7     2     8
 0.1883305840     1     7     3     1
 0.0149432573     1     7     3     2
 0.0024853402     1     7     3     4
 -0.0030052661     1     7     3     6
 0.0005547979     1     7     3     9
 -0.0018266559     1     7     4     3
 0.0024055227     1     7     4     8
 0.0025409057     1     7     6     3
 0.0014159536     1     7     6     8
 -0.3924376924     1     7     7     1
 -0.0073280744     1     7     7     2
 -0.0038757765     1     7     7     4
 0.0028689864     1     7     7     6
 -0.0011785994     1     7     7     9
 0.1544107859     1     7     8     1
 0.0064643280     1     7     8     2
 0.0040419471     1     7     8     4
 -0.0019732329     1     7     8     6
 0.0036453744     1     7     8     9
 -0.0022109114     1     7     9     3
 0.0014487455     1     7     9     8
 -0.0047143915     1     8     2     3
 0.0009074331     1     8     2     7
 -0.1269886143     1     8     3     1
 -0.0154853977     1     8     3     2
 0.0025502188     1     8     3     4
 0.0047454277     1     8     3     6
 -0.0035348962     1     8     3     9
 0.0060789884     1     8     4     3
 -0.0024055227     1     8     4     7
 0.0003683051     1     8     6     3
 -0.0014159536     1     8     6     7
 0.1544107859     1     8     7     1
 0.0074065467     1     8     7     2
 0.0016260283     1     8     7     4
 -0.0033836765     1     8     7     6
 0.0021956885     1     8     7     9
 -0.5538842393     1     8     8     1
 -0.0061316817     1     8     8     2
 -0.0061006490     1     8     8     4
 0.0011220310     1     8     8     6
 -0.0022840504     1     8     8     9
 0.0048439096     1     8     9     3
 -0.0014487455     1     8     9     7
 -0.1283689432     1     9     2     1
 -0.0039305569     1     9     2     2
 0.0025672254     1     9     2     4
 0.0010262584     1     9     2     6
 -0.0008268860     1     9     3     3
 -0.0005547979     1     9     3     7
 0.0035348962     1     9     3     8
 0.1327013478     1     9     4     1
 0.0158947329     1     9     4     2
 0.0128186292     1     9     4     4
 -0.0017897331     1     9     4     6
 0.0123949296     1     9     5     5
 0.1605642433     1     9     6     1
 0.0051633393     1     9     6     2
 0.0050780003     1     9     6     4
 -0.0013424837     1     9     6     6
 -0.0029513549     1     9     7     3
 0.0011785994     1     9     7     7
 -0.0021956885     1     9     7     8
 0.0085602095     1     9     8     3
 -0.0036453744     1     9     8     7
 0.0022840504     1     9     8     8
 -0.5746250816     1     9     9     1
 -0.0069060879     1     9     9     2
 -0.0109000656     1     9     9     4
 0.0002063259     1     9     9     6
 -0.9828958989     2     1     1     2
 -0.0711977884     2     1     1     4
 0.1529004376     2     1     1     6
 -0.1283689432     2     1     1     9
 0.0299602365     2     1     3     3
 -0.0109667643     2     1     3     7
 0.0102225138     2     1     3     8
 -0.0068422072     2     1     4     2
 0.0354764263     2     1     4     4
 0.0083038192     2     1     4     6
 -0.0126390087     2     1     4     9
 0.0407959472     2     1     5     5
 -0.0016354299     2     1     6     2
 0.0088469195     2     1     6     4
 0.0028623803     2     1     6     6
 -0.0041296160     2     1     6     9
 -0.0149432573     2     1     7     3
 0.0073280744     2     1     7     7
 -0.0064643280     2     1     7     8
 0.0154853977     2     1     8     3
 -0.0074065467     2     1     8     7
 0.0061316817     2     1     8     8
 0.0039305569     2     1     9     2
 -0.0158947329     2     1     9     4
 -0.0051633393     2     1     9     6
 0.0069060879     2     1     9     9
 0.9828958989     2     2     1     1
 0.0068422072     2     2     1     4
 0.0016354299     2     2     1     6
 -0.0039305569     2     2     1     9
 0.5249189419     2     2     3     3
 -0.0733712802     2     2     3     7
 0.0237656228     2     2     3     8
 0.0068422072     2     2     4     1
 0.5524518978     2     2     4     4
 0.0362306904     2     2     4     6
 -0.0426100410     2     2     4     9
 0.5825950061     2     2     5     5
 0.0016354299     2     2     6     1
 0.0362306904     2     2     6     4
 0.3340965158     2     2     6     6
 -0.0808326936     2     2     6     9
 -0.0733712802     2     2     7     3
 0.3277763496     2     2     7     7
 -0.0855894418     2     2     7     8
 0.0237656228     2     2     8     3
 -0.0855894418     2     2     8     7
 0.4730563757     2     2     8     8
 -0.0039305569     2     2     9     1
 -0.0426100410     2     2     9     4
 -0.0808326936     2     2     9     6
 0.4720885791     2     2     9     9
 0.0032086612     2     3     1     7
 -0.0047143915     2     3     1     8
 -0.0299602365     2     3     3     1
 -0.5249189419     2     3     3     2
 -0.0027316177     2     3     3     4
 0.0705604158     2     3     3     6
 -0.0748295752     2     3     3     9
 -0.0150587389     2     3     4     7
 0.0392308221     2     3     4     8
 0.0402079775     2     3     6     7
 0.0001233327     2     3     6     8
 0.0149432573     2     3     7     1
 0.0733712802     2     3     7     2
 -0.0017594064     2     3     7     4
 0.0221341601     2     3     7     6
 0.0053434464     2     3     7     9
 -0.0154853977     2     3     8     1
 -0.0237656228     2     3     8     2
 0.0061024494     2     3     8     4
 0.0034534582     2     3     8     6
 0.0526296475     2     3     8     9
 -0.0147507913     2     3     9     7
 0.0538827268     2     3     9     8
 0.0711977884     2     4     1     1
 -0.0068422072     2     4     1     2
 -0.0000128811     2     4     1     6
 0.0025672254     2     4     1     9
 0.0027316177     2     4     3     3
 -0.0132595580     2     4     3     7
 0.0335489820     2     4     3     8
 -0.0354764263     2     4     4     1
 -0.5524518978     2     4     4     2
 0.0702979869     2     4     4     6
 -0.0468056159     2     4     4     9
 0.0065974761     2     4     5     5
 -0.0088469195     2     4     6     1
 -0.0362306904     2     4     6     2
 -0.0114394151     2     4     6     6
 0.0006640461     2     4     6     9
 0.0017594064     2     4     7     3
 -0.0142865323     2     4     7     7
 -0.0040056028     2     4     7     8
 -0.0061024494     2     4     8     3
 0.0047812009     2     4     8     7
 -0.0192003887     2     4     8     8
 0.0158947329     2     4     9     1
 0.0426100410     2     4     9     2
 -0.0032190701     2     4     9     6
 -0.0285853859     2     4     9     9
 -0.0407959472     2     5     5     1
 -0.5825950061     2     5     5     2
 -0.0065974761     2     5     5     4
 0.0679229034     2     5     5     6
 -0.0291213578     2     5     5     9
 -0.1529004376     2     6     1     1
 -0.0016354299     2     6     1     2
 0.0000128811     2     6     1     4
 0.0010262584     2     6     1     9
 -0.0705604158     2     6     3     3
 0.0162294403     2     6     3     7
 -0.0022395687     2     6     3     8
 -0.0083038192     2     6     4     1
 -0.0362306904     2     6     4     2
 -0.0702979869     2     6     4     4
 0.0036590195     2     6     4     9
 -0.0679229034     2     6     5     5
 -0.0028623803     2     6     6     1
 -0.3340965158     2     6     6     2
 0.0114394151     2     6     6     4
 0.0117649083     2     6     6     9
 -0.0221341601     2     6     7     3
 -0.0133042912     2     6     7     7
 0.0219991294     2     6     7     8
 -0.0034534582     2     6     8     3
 0.0122447874     2     6     8     7
 -0.0366822072     2     6     8     8
 0.0051633393     2     6     9     1
 0.0808326936     2     6     9     2
 0.0032190701     2     6     9     4
 -0.0277587474     2     6     9     9
 -0.0032086612     2     7     1     3
 0.0009074331     2     7     1     8
 0.0109667643     2     7     3     1
 0.0733712802     2     7     3     2
 0.0132595580     2     7     3     4
 -0.0162294403     2     7     3     6
 0.0175127002     2     7     3     9
 0.0150587389     2     7     4     3
 -0.0081370345     2     7     4     8
 -0.0402079775     2     7     6     3
 0.0097985871     2     7     6     8
 -0.0073280744     2     7     7     1
 -0.3277763496     2     7     7     2
 0.0142865323     2     7     7     4
 0.0133042912     2     7     7     6
 0.0015153425     2     7     7     9
 0.0074065467     2     7     8     1
 0.0855894418     2     7     8     2
 -0.0047812009     2     7     8     4
 -0.0122447874     2     7     8     6
 0.0038299049     2     7     8     9
 0.0147507913     2     7     9     3
 -0.0068909762     2     7     9     8
 0.0047143915     2     8     1     3
 -0.0009074331     2     8     1     7
 -0.0102225138     2     8     3     1
 -0.0237656228     2     8     3     2
 -0.0335489820     2     8     3     4
 0.0022395687     2     8     3     6
 -0.0000299234     2     8     3     9
 -0.0392308221     2     8     4     3
 0.0081370345     2     8     4     7
 -0.0001233327     2     8     6     3
 -0.0097985871     2     8     6     7
 0.0064643280     2     8     7     1
 0.0855894418     2     8     7     2
 0.0040056028     2     8     7     4
 -0.0219991294     2     8     7     6
 0.0106932724     2     8     7     9
 -0.0061316817     2     8     8     1
 -0.4730563757     2     8     8     2
 0.0192003887     2     8     8     4
 0.0366822072     2     8     8     6
 -0.0221428871     2     8     8     9
 -0.0538827268     2     8     9     3
 0.0068909762     2     8     9     7
 0.1283689432     2     9     1     1
 0.0039305569     2     9     1     2
 -0.0025672254     2     9     1     4
 -0.0010262584     2     9     1     6
 0.0748295752     2     9     3     3
 -0.0175127002     2     9     3     7
 0.0000299234     2     9     3     8
 0.0126390087     2     9     4     1
 0.0426100410     2     9     4     2
 0.0468056159     2     9     4     4
 -0.0036590195     2     9     4     6
 0.0291213578     2     9     5     5
 0.0041296160     2     9     6     1
 0.0808326936     2     9     6     2
 -0.0006640461     2     9     6     4
 -0.0117649083     2     9     6     6
 -0.0053434464     2     9     7     3
 -0.0015153425     2     9     7     7
 -0.0106932724     2     9     7     8
 -0.0526296475     2     9     8     3
 -0.0038299049     2     9     8     7
 0.0221428871     2     9     8     8
 -0.0069060879     2     9     9     1
 -0.4720885791     2     9     9     2
 0.0285853859     2     9     9     4
 0.0277587474     2     9     9     6
 -0.8594494470     3     1     1     3
 0.1883305840     3     1     1     7
 -0.1269886143     3     1     1     8
 -0.0299602365     3     1     2     3
 0.0109667643     3     1     2     7
 -0.0102225138     3     1     2     8
 -0.0104698510     3     1     4     3
 0.0041318767     3     1     4     7
 -0.0034109543     3     1     4     8
 0.0047886572     3     1     6     3
 -0.0057588250     3     1     6     7
 0.0045462372     3     1     6     8
 -0.0032086612     3     1     7     2
 0.0018266559     3     1     7     4
 -0.0025409057     3     1     7     6
 0.0022109114     3     1     7     9
 0.0047143915     3     1     8     2
 -0.0060789884     3     1     8     4
 -0.0003683051     3     1     8     6
 -0.0048439096     3     1     8     9
 0.0008268860     3     1     9     3
 0.0029513549     3     1     9     7
 -0.0085602095     3     1     9     8
 -0.0299602365     3     2     1     3
 0.0149432573     3     2     1     7
 -0.0154853977     3     2     1     8
 -0.5249189419     3     2     2     3
 0.0733712802     3     2     2     7
 -0.0237656228     3     2     2     8
 -0.0027316177     3     2     4     3
 -0.0017594064     3     2     4     7
 0.0061024494     3     2     4     8
 0.0705604158     3     2     6     3
 0.0221341601     3     2     6     7
 0.0034534582     3     2     6     8
 0.0032086612     3     2     7     1
 -0.0150587389     3     2     7     4
 0.0402079775     3     2     7     6
 -0.0147507913     3     2     7     9
 -0.0047143915     3     2     8     1
 0.0392308221     3     2     8     4
 0.0001233327     3     2     8     6
 0.0538827268     3     2     8     9
 -0.0748295752     3     2     9     3
 0.0053434464     3     2     9     7
 0.0526296475     3     2     9     8
 0.8594494470     3     3     1     1
 0.0299602365     3     3     1     2
 0.0104698510     3     3     1     4
 -0.0047886572     3     3     1     6
 -0.0008268860     3     3     1     9
 0.0299602365     3     3     2     1
 0.5249189419     3     3     2     2
 0.0027316177     3     3     2     4
 -0.0705604158     3     3     2     6
 0.0748295752     3     3     2     9
 0.0104698510     3     3     4     1
 0.0027316177     3     3     4     2
 0.5603339453     3     3     4     4
 0.0379184150     3     3     4     6
 -0.0464054841     3     3     4     9
 0.5857826733     3     3     5     5
 -0.0047886572     3     3     6     1
 -0.0705604158     3     3     6     2
 0.0379184150     3     3     6     4
 0.3383641825     3     3     6     6
 -0.0790222781     3     3     6     9
 0.3038137339     3     3     7     7
 -0.0596507386     3     3     7     8
 -0.0596507386     3     3     8     7
 0.4351437704     3     3     8     8
 -0.0008268860     3     3     9     1
 0.0748295752     3     3     9     2
 -0.0464054841     3     3     9     4
 -0.0790222781     3     3     9     6
 0.4519972547     3     3     9     9
 -0.0104698510     3     4     1     3
 0.0024853402     3     4     1     7
 0.0025502188     3     4     1     8
 -0.0027316177     3     4     2     3
 0.0132595580     3     4     2     7
 -0.0335489820     3     4     2     8
 -0.5603339453     3     4     4     3
 0.0941483416     3     4     4     7
 -0.0543984807     3     4     4     8
 -0.0379184150     3     4     6     3
 0.0027440230     3     4     6     7
 -0.0087806855     3     4     6     8
 -0.0018266559     3     4     7     1
 0.0150587389     3     4     7     2
 -0.0088298651     3     4     7     6
 -0.0052996385     3     4     7     9
 0.0060789884     3     4     8     1
 -0.0392308221     3     4     8     2
 -0.0029797152     3     4     8     6
 0.0038392849     3     4     8     9
 0.0464054841     3     4     9     3
 -0.0134402627     3     4     9     7
 -0.0084827459     3     4     9     8
 -0.5857826733     3     5     5     3
 0.0973719000     3     5     5     7
 -0.0444398341     3     5     5     8
 0.0047886572     3     6     1     3
 -0.0030052661     3     6     1     7
 0.0047454277     3     6     1     8
 0.0705604158     3     6     2     3
 -0.0162294403     3     6     2     7
 0.0022395687     3     6     2     8
 -0.0379184150     3     6     4     3
 0.0100416988     3     6     4     7
 -0.0048416295     3     6     4     8
 -0.3383641825     3     6     6     3
 0.0348128877     3     6     6     7
 0.0172190379     3     6     6     8
 0.0025409057     3     6     7     1
 -0.0402079775     3     6     7     2
 0.0088298651     3     6     7     4
 0.0334183347     3     6     7     9
 0.0003683051     3     6     8     1
 -0.0001233327     3     6     8     2
 0.0029797152     3     6     8     4
 0.0152677182     3     6     8     9
 0.0790222781     3     6     9     3
 -0.0183393302     3     6     9     7
 0.0162909677     3     6     9     8
 -0.1883305840     3     7     1     1
 -0.0149432573     3     7     1     2
 -0.0024853402     3     7     1     4
 0.0030052661     3     7     1     6
 -0.0005547979     3     7     1     9
 -0.0109667643     3     7     2     1
 -0.0733712802     3     7     2     2
 -0.0132595580     3     7     2     4
 0.0162294403     3     7     2     6
 -0.0175127002     3     7     2     9
 -0.0041318767     3     7     4     1
 0.0017594064     3     7     4     2
 -0.0941483416     3     7     4     4
 -0.0100416988     3     7     4     6
 0.0065514888     3     7     4     9
 -0.0973719000     3     7     5     5
 0.0057588250     3     7     6     1
 -0.0221341601     3     7     6     2
 -0.0027440230     3     7     6     4
 -0.0348128877     3     7     6     6
 0.0517677698     3     7     6     9
 -0.3038137339     3     7     7     3
 0.0291581059     3     7     7     8
 0.0596507386     3     7     8     3
 -0.0338985728     3     7     8     8
 -0.0029513549     3     7     9     1
 -0.0053434464     3     7     9     2
 0.0134402627     3     7     9     4
 0.0183393302     3     7     9     6
 -0.0442139934     3     7     9     9
 0.1269886143     3     8     1     1
 0.0154853977     3     8     1     2
 -0.0025502188     3     8     1     4
 -0.0047454277     3     8     1     6
 0.0035348962     3     8     1     9
 0.0102225138     3     8     2     1
 0.0237656228     3     8     2     2
 0.0335489820     3     8     2     4
 -0.0022395687     3     8     2     6
 0.0000299234     3     8     2     9
 0.0034109543     3     8     4     1
 -0.0061024494     3     8     4     2
 0.0543984807     3     8     4     4
 0.0048416295     3     8     4     6
 0.0125880686     3     8     4     9
 0.0444398341     3     8     5     5
 -0.0045462372     3     8     6     1
 -0.0034534582     3     8     6     2
 0.0087806855     3     8     6     4
 -0.0172190379     3     8     6     6
 -0.0008368593     3     8     6     9
 0.0596507386     3     8     7     3
 -0.0291581059     3     8     7     7
 -0.4351437704     3     8     8     3
 0.0338985728     3     8     8     7
 0.0085602095     3     8     9     1
 -0.0526296475     3     8     9     2
 0.0084827459     3     8     9     4
 -0.0162909677     3     8     9     6
 0.0186703374     3     8     9     9
 0.0008268860     3     9     1     3
 0.0005547979     3     9     1     7
 -0.0035348962     3     9     1     8
 -0.0748295752     3     9     2     3
 0.0175127002     3     9     2     7
 -0.0000299234     3     9     2     8
 0.0464054841     3     9     4     3
 -0.0065514888     3     9     4     7
 -0.0125880686     3     9     4     8
 0.0790222781     3     9     6     3
 -0.0517677698     3     9     6     7
 0.0008368593     3     9     6     8
 -0.0022109114     3     9     7     1
 0.0147507913     3     9     7     2
 0.0052996385     3     9     7     4
 -0.0334183347     3     9     7     6
 0.0048439096     3     9     8     1
 -0.0538827268     3     9     8     2
 -0.0038392849     3     9     8     4
 -0.0152677182     3     9     8     6
 -0.4519972547     3     9     9     3
 0.0442139934     3     9     9     7
 -0.0186703374     3     9     9     8
 -0.0711977884     4     1     1     2
 -0.9535850715     4     1     1     4
 -0.0866588080     4     1     1     6
 0.1327013478     4     1     1     9
 0.0068422072     4     1     2     2
 -0.0354764263     4     1     2     4
 -0.0083038192     4     1     2     6
 0.0126390087     4     1     2     9
 0.0104698510     4     1     3     3
 -0.0041318767     4     1     3     7
 0.0034109543     4     1     3     8
 0.0139096781     4     1     5     5
 0.0000128811     4     1     6     2
 0.0108860632     4     1     6     4
 0.0054938405     4     1     6     6
 -0.0068169108     4     1     6     9
 -0.0024853402     4     1     7     3
 0.0038757765     4     1     7     7
 -0.0040419471     4     1     7     8
 -0.0025502188     4     1     8     3
 -0.0016260283     4     1     8     7
 0.0061006490     4     1     8     8
 -0.0025672254     4     1     9     2
 -0.0128186292     4     1     9     4
 -0.0050780003     4     1     9     6
 0.0109000656     4     1     9     9
 0.0711977884     4     2     1     1
 -0.0354764263     4     2     1     4
 -0.0088469195     4     2     1     6
 0.0158947329     4     2     1     9
 -0.0068422072     4     2     2     1
 -0.5524518978     4     2     2     4
 -0.0362306904     4     2     2     6
 0.0426100410     4     2     2     9
 0.0027316177     4     2     3     3
 0.0017594064     4     2     3     7
 -0.0061024494     4     2     3     8
 0.0065974761     4     2     5     5
 -0.0000128811     4     2     6     1
 0.0702979869     4     2     6     4
 -0.0114394151     4     2     6     6
 -0.0032190701     4     2     6     9
 -0.0132595580     4     2     7     3
 -0.0142865323     4     2     7     7
 0.0047812009     4     2     7     8
 0.0335489820     4     2     8     3
 -0.0040056028     4     2     8     7
 -0.0192003887     4     2     8     8
 0.0025672254     4     2     9     1
 -0.0468056159     4     2     9     4
 0.0006640461     4     2     9     6
 -0.0285853859     4     2     9     9
 -0.0018266559     4     3     1     7
 0.0060789884     4     3     1     8
 0.0150587389     4     3     2     7
 -0.0392308221     4     3     2     8
 -0.0104698510     4     3     3     1
 -0.0027316177     4     3     3     2
 -0.5603339453     4     3     3     4
 -0.0379184150     4     3     3     6
 0.0464054841     4     3     3     9
 -0.0088298651     4     3     6     7
 -0.0029797152     4     3     6     8
 0.0024853402     4     3     7     1
 0.0132595580     4     3     7     2
 0.0941483416     4     3     7     4
 0.0027440230     4     3     7     6
 -0.0134402627     4     3     7     9
 0.0025502188     4     3     8     1
 -0.0335489820     4     3     8     2
 -0.0543984807     4     3     8     4
 -0.0087806855     4     3     8     6
 -0.0084827459     4     3     8     9
 -0.0052996385     4     3     9     7
 0.0038392849     4     3     9     8
 0.9535850715     4     4     1     1
 0.0354764263     4     4     1     2
 -0.0108860632     4     4     1     6
 0.0128186292     4     4     1     9
 0.0354764263     4     4     2     1
 0.5524518978     4     4     2     2
 -0.0702979869     4     4     2     6
 0.0468056159     4     4     2     9
 0.5603339453     4     4     3     3
 -0.0941483416     4     4     3     7
 0.0543984807     4     4     3     8
 0.6136759069     4     4     5     5
 -0.0108860632     4     4     6     1
 -0.0702979869     4     4     6     2
 0.3216861681     4     4     6     6
 -0.0704114001     4     4     6     9
 -0.0941483416     4     4     7     3
 0.3153546394     4     4     7     7
 -0.0777261079     4     4     7     8
 0.0543984807     4     4     8     3
 -0.0777261079     4     4     8     7
 0.4266210680     4     4     8     8
 0.0128186292     4     4     9     1
 0.0468056159     4     4     9     2
 -0.0704114001     4     4     9     6
 0.4265172382     4     4     9     9
 -0.0139096781     4     5     5     1
 -0.0065974761     4     5     5     2
 -0.6136759069     4     5     5     4
 -0.0474248562     4     5     5     6
 0.0591499574     4     5     5     9
 0.0866588080     4     6     1     1
 0.0088469195     4     6     1     2
 0.0108860632     4     6     1     4
 -0.0017897331     4     6     1     9
 0.0083038192     4     6     2     1
 0.0362306904     4     6     2     2
 0.0702979869     4     6     2     4
 -0.0036590195     4     6     2     9
 0.0379184150     4     6     3     3
 -0.0100416988     4     6     3     7
 0.0048416295     4     6     3     8
 0.0474248562     4     6     5     5
 -0.0054938405     4     6     6     1
 0.0114394151     4     6     6     2
 -0.3216861681     4     6     6     4
 -0.0042342565     4     6     6     9
 -0.0027440230     4     6     7     3
 0.0149616051     4     6     7     7
 -0.0364098763     4     6     7     8
 0.0087806855     4     6     8     3
 -0.0065579095     4     6     8     7
 0.0149982790     4     6     8     8
 0.0050780003     4     6     9     1
 -0.0006640461     4     6     9     2
 0.0704114001     4     6     9     4
 0.0032039011     4     6     9     9
 0.0018266559     4     7     1     3
 -0.0024055227     4     7     1     8
 -0.0150587389     4     7     2     3
 0.0081370345     4     7     2     8
 0.0041318767     4     7     3     1
 -0.0017594064     4     7     3     2
 0.0941483416     4     7     3     4
 0.0100416988     4     7     3     6
 -0.0065514888     4     7     3     9
 0.0088298651     4     7     6     3
 -0.0297786592     4     7     6     8
 -0.0038757765     4     7     7     1
 0.0142865323     4     7     7     2
 -0.3153546394     4     7     7     4
 -0.0149616051     4     7     7     6
 0.0029204671     4     7     7     9
 0.0016260283     4     7     8     1
 0.0040056028     4     7     8     2
 0.0777261079     4     7     8     4
 0.0065579095     4     7     8     6
 -0.0226514349     4     7     8     9
 0.0052996385     4     7     9     3
 -0.0074382710     4     7     9     8
 -0.0060789884     4     8     1     3
 0.0024055227     4     8     1     7
 0.0392308221     4     8     2     3
 -0.0081370345     4     8     2     7
 -0.0034109543     4     8     3     1
 0.0061024494     4     8     3     2