&FCI NORB= 16,NELEC= 10,MS2=0,
 ORBSYM=1,1,1,1,1,1,1,1,1,1,1,1,1,1,1,1
 ISYM=1,
&END
 0.9849617659     1     1     2     2
 -0.0000000004     1     1     2     3
 0.0672599742     1     1     2     4
 0.1334344861     1     1     2     6
 -0.0000000094     1     1     2     7
 -0.0000000863     1     1     2     8
 0.0765269453     1     1     2     9
 0.0801240754     1     1     2    10
 -0.0000000039     1     1     2    12
 0.0865588137     1     1     2    13
 0.1764082914     1     1     2    16
 -0.0000000004     1     1     3     2
 0.8608756313     1     1     3     3
 -0.0000000132     1     1     3     4
 -0.0000000166     1     1     3     6
 -0.1548418575     1     1     3     7
 0.0876146256     1     1     3     8
 0.0000000489     1     1     3     9
 0.0000000265     1     1     3    10
 0.2383987989     1     1     3    12
 0.0000000502     1     1     3    13
 -0.0000000163     1     1     3    16
 0.0672599742     1     1     4     2
 -0.0000000132     1     1     4     3
 0.9506024687     1     1     4     4
 -0.0733244017     1     1     4     6
 -0.0000000093     1     1     4     7
 0.0000000056     1     1     4     8
 0.0871786863     1     1     4     9
 -0.2269758921     1     1     4    10
 0.0000000210     1     1     4    12
 -0.0511535420     1     1     4    13
 0.1255753327     1     1     4    16
 0.9991581602     1     1     5     5
 -0.3051613716     1     1     5    11
 -0.0000000342     1     1     5    14
 0.0334039035     1     1     5    15
 0.1334344861     1     1     6     2
 -0.0000000166     1     1     6     3
 -0.0733244017     1     1     6     4
 0.3190414563     1     1     6     6
 0.0000000037     1     1     6     7
 -0.0000000766     1     1     6     8
 0.0411875454     1     1     6     9
 0.1075197389     1     1     6    10
 -0.0000000224     1     1     6    12
 0.0691697478     1     1     6    13
 0.0832998014     1     1     6    16
 -0.0000000094     1     1     7     2
 -0.1548418575     1     1     7     3
 -0.0000000093     1     1     7     4
 0.0000000037     1     1     7     6
 0.2855300322     1     1     7     7
 -0.0694738766     1     1     7     8
 -0.0000000475     1     1     7     9
 -0.0000000160     1     1     7    10
 -0.1487173665     1     1     7    12
 -0.0000000343     1     1     7    13
 -0.0000000032     1     1     7    16
 -0.0000000863     1     1     8     2
 0.0876146256     1     1     8     3
 0.0000000056     1     1     8     4
 -0.0000000766     1     1     8     6
 -0.0694738766     1     1     8     7
 0.3911508257     1     1     8     8
 0.0000000108     1     1     8     9
 -0.0000000289     1     1     8    10
 0.0806047792     1     1     8    12
 0.0000000036     1     1     8    13
 -0.0000000380     1     1     8    16
 0.0765269453     1     1     9     2
 0.0000000489     1     1     9     3
 0.0871786863     1     1     9     4
 0.0411875454     1     1     9     6
 -0.0000000475     1     1     9     7
 0.0000000108     1     1     9     8
 0.3715351394     1     1     9     9
 0.0021048316     1     1     9    10
 0.0000000604     1     1     9    12
 -0.0024048899     1     1     9    13
 0.0590155489     1     1     9    16
 0.0801240754     1     1    10     2
 0.0000000265     1     1    10     3
 -0.2269758921     1     1    10     4
 0.1075197389     1     1    10     6
 -0.0000000160     1     1    10     7
 -0.0000000289     1     1    10     8
 0.0021048316     1     1    10     9
 0.4689790341     1     1    10    10
 0.0000000115     1     1    10    12
 0.0511497961     1     1    10    13
 -0.0366887324     1     1    10    16
 -0.3051613716     1     1    11     5
 0.5422684527     1     1    11    11
 0.0000000216     1     1    11    14
 -0.0321574804     1     1    11    15
 -0.0000000039     1     1    12     2
 0.2383987989     1     1    12     3
 0.0000000210     1     1    12     4
 -0.0000000224     1     1    12     6
 -0.1487173665     1     1    12     7
 0.0806047792     1     1    12     8
 0.0000000604     1     1    12     9
 0.0000000115     1     1    12    10
 0.4762858776     1     1    12    12
 0.0000000224     1     1    12    13
 -0.0000000072     1     1    12    16
 0.0865588137     1     1    13     2
 0.0000000502     1     1    13     3
 -0.0511535420     1     1    13     4
 0.0691697478     1     1    13     6
 -0.0000000343     1     1    13     7
 0.0000000036     1     1    13     8
 -0.0024048899     1     1    13     9
 0.0511497961     1     1    13    10
 0.0000000224     1     1    13    12
 0.3795816840     1     1    13    13
 0.0184195791     1     1    13    16
 -0.0000000342     1     1    14     5
 0.0000000216     1     1    14    11
 0.3610144878     1     1    14    14
 -0.0000000059     1     1    14    15
 0.0334039035     1     1    15     5
 -0.0321574804     1     1    15    11
 -0.0000000059     1     1    15    14
 0.3612954610     1     1    15    15
 0.1764082914     1     1    16     2
 -0.0000000163     1     1    16     3
 0.1255753327     1     1    16     4
 0.0832998014     1     1    16     6
 -0.0000000032     1     1    16     7
 -0.0000000380     1     1    16     8
 0.0590155489     1     1    16     9
 -0.0366887324     1     1    16    10
 -0.0000000072     1     1    16    12
 0.0184195791     1     1    16    13
 0.5056376718     1     1    16    16
 -0.9849617659     1     2     2     1
 -0.0000000012     1     2     2     3
 0.0062761601     1     2     2     4
 -0.0012539837     1     2     2     6
 0.0000000004     1     2     2     7
 0.0000000001     1     2     2     8
 0.0011050810     1     2     2     9
 -0.0040550830     1     2     2    10
 -0.0000000005     1     2     2    12
 -0.0014248665     1     2     2    13
 0.0015598518     1     2     2    16
 0.0000000004     1     2     3     1
 -0.0306969488     1     2     3     3
 0.0000000009     1     2     3     4
 0.0000000010     1     2     3     6
 0.0111480347     1     2     3     7
 -0.0092391120     1     2     3     8
 -0.0000000058     1     2     3     9
 -0.0000000030     1     2     3    10
 -0.0212418568     1     2     3    12
 -0.0000000047     1     2     3    13
 0.0000000014     1     2     3    16
 -0.0672599742     1     2     4     1
 0.0000000008     1     2     4     3
 -0.0363229832     1     2     4     4
 0.0065946308     1     2     4     6
 0.0000000005     1     2     4     7
 -0.0000000024     1     2     4     8
 -0.0048374357     1     2     4     9
 0.0188921862     1     2     4    10
 -0.0000000020     1     2     4    12
 0.0064784503     1     2     4    13
 -0.0081930039     1     2     4    16
 -0.0412506570     1     2     5     5
 0.0247694456     1     2     5    11
 0.0000000029     1     2     5    14
 -0.0036290380     1     2     5    15
 -0.1334344861     1     2     6     1
 0.0000000006     1     2     6     3
 0.0062715377     1     2     6     4
 -0.0014412580     1     2     6     6
 -0.0000000005     1     2     6     7
 0.0000000010     1     2     6     8
 0.0007196636     1     2     6     9
 -0.0039303378     1     2     6    10
 0.0000000011     1     2     6    12
 -0.0014414930     1     2     6    13
 0.0012634795     1     2     6    16
 0.0000000094     1     2     7     1
 0.0083694313     1     2     7     3
 0.0000000003     1     2     7     4
 -0.0000000006     1     2     7     6
 -0.0035816365     1     2     7     7
 0.0029249459     1     2     7     8
 0.0000000019     1     2     7     9
 0.0000000006     1     2     7    10
 0.0070430682     1     2     7    12
 0.0000000014     1     2     7    13
 -0.0000000003     1     2     7    16
 0.0000000863     1     2     8     1
 -0.0062918010     1     2     8     3
 -0.0000000025     1     2     8     4
 0.0000000011     1     2     8     6
 0.0026047609     1     2     8     7
 -0.0022853134     1     2     8     8
 -0.0000000018     1     2     8     9
 0.0000000011     1     2     8    10
 -0.0047850302     1     2     8    12
 -0.0000000003     1     2     8    13
 -0.0000000001     1     2     8    16
 -0.0765269453     1     2     9     1
 -0.0000000040     1     2     9     3
 -0.0031148448     1     2     9     4
 0.0003402908     1     2     9     6
 0.0000000016     1     2     9     7
 -0.0000000016     1     2     9     8
 -0.0006425528     1     2     9     9
 0.0021094290     1     2     9    10
 -0.0000000030     1     2     9    12
 0.0003344269     1     2     9    13
 -0.0013408466     1     2     9    16
 -0.0801240754     1     2    10     1
 -0.0000000021     1     2    10     3
 0.0151266661     1     2    10     4
 -0.0031714819     1     2    10     6
 0.0000000004     1     2    10     7
 0.0000000005     1     2    10     8
 0.0027089746     1     2    10     9
 -0.0098421326     1     2    10    10
 -0.0000000004     1     2    10    12
 -0.0029299996     1     2    10    13
 0.0043476364     1     2    10    16
 0.0184111793     1     2    11     5
 -0.0138294692     1     2    11    11
 -0.0000000016     1     2    11    14
 0.0016221877     1     2    11    15
 0.0000000039     1     2    12     1
 -0.0145413939     1     2    12     3
 -0.0000000013     1     2    12     4
 0.0000000011     1     2    12     6
 0.0064295075     1     2    12     7
 -0.0049076270     1     2    12     8
 -0.0000000032     1     2    12     9
 -0.0000000005     1     2    12    10
 -0.0122641350     1     2    12    12
 -0.0000000023     1     2    12    13
 0.0000000005     1     2    12    16
 -0.0865588137     1     2    13     1
 -0.0000000033     1     2    13     3
 0.0050031119     1     2    13     4
 -0.0011165595     1     2    13     6
 0.0000000013     1     2    13     7
 -0.0000000005     1     2    13     8
 0.0005291597     1     2    13     9
 -0.0028125561     1     2    13    10
 -0.0000000024     1     2    13    12
 -0.0009711714     1     2    13    13
 0.0009780631     1     2    13    16
 0.0000000022     1     2    14     5
 -0.0000000015     1     2    14    11
 0.0001920245     1     2    14    14
 0.0000000001     1     2    14    15
 -0.0021927886     1     2    15     5
 0.0012094093     1     2    15    11
 0.0000000001     1     2    15    14
 -0.0001511400     1     2    15    15
 -0.1764082914     1     2    16     1
 0.0000000007     1     2    16     3
 -0.0045231215     1     2    16     4
 0.0005308831     1     2    16     6
 -0.0000000001     1     2    16     7
 0.0000000002     1     2    16     8
 -0.0011585655     1     2    16     9
 0.0028608084     1     2    16    10
 0.0000000003     1     2    16    12
 0.0005158915     1     2    16    13
 -0.0023412149     1     2    16    16
 0.0000000004     1     3     2     1
 0.0000000012     1     3     2     2
 0.0000000002     1     3     2     4
 0.0000000003     1     3     2     6
 0.0020832091     1     3     2     7
 -0.0024535328     1     3     2     8
 -0.0000000016     1     3     2     9
 -0.0000000007     1     3     2    10
 -0.0055161291     1     3     2    12
 -0.0000000012     1     3     2    13
 0.0000000007     1     3     2    16
 -0.8608756313     1     3     3     1
 0.0306969488     1     3     3     2
 0.0095724188     1     3     3     4
 0.0041956322     1     3     3     6
 -0.0000000006     1     3     3     7
 -0.0000000011     1     3     3     8
 0.0018317665     1     3     3     9
 -0.0017740916     1     3     3    10
 -0.0000000002     1     3     3    12
 0.0045378551     1     3     3    13
 0.0110478608     1     3     3    16
 0.0000000132     1     3     4     1
 -0.0000000008     1     3     4     2
 0.0000000010     1     3     4     4
 -0.0000000006     1     3     4     6
 -0.0010587932     1     3     4     7
 0.0040064890     1     3     4     8
 0.0000000030     1     3     4     9
 0.0000000003     1     3     4    10
 0.0013526185     1     3     4    12
 0.0000000003     1     3     4    13
 -0.0000000001     1     3     4    16
 0.0000000015     1     3     5     5
 -0.0000000012     1     3     5    11
 0.0032615961     1     3     5    14
 -0.0000000003     1     3     5    15
 0.0000000166     1     3     6     1
 -0.0000000006     1     3     6     2
 -0.0000000004     1     3     6     4
 -0.0000000002     1     3     6     6
 -0.0018908732     1     3     6     7
 -0.0003198612     1     3     6     8
 -0.0000000006     1     3     6     9
 0.0017794749     1     3     6    12
 0.0000000002     1     3     6    13
 -0.0000000003     1     3     6    16
 0.1548418575     1     3     7     1
 -0.0083694313     1     3     7     2
 -0.0026028739     1     3     7     4
 -0.0037529812     1     3     7     6
 0.0000000004     1     3     7     7
 0.0000000018     1     3     7     8
 -0.0018493636     1     3     7     9
 -0.0012100487     1     3     7    10
 -0.0000000002     1     3     7    12
 -0.0014926517     1     3     7    13
 -0.0037746765     1     3     7    16
 -0.0876146256     1     3     8     1
 0.0062918010     1     3     8     2
 0.0017834001     1     3     8     4
 0.0019585119     1     3     8     6
 0.0000000012     1     3     8     7
 -0.0000000031     1     3     8     8
 0.0007794703     1     3     8     9
 0.0040812818     1     3     8    10
 -0.0000000039     1     3     8    12
 0.0030656260     1     3     8    13
 0.0017176374     1     3     8    16
 -0.0000000489     1     3     9     1
 0.0000000040     1     3     9     2
 0.0000000011     1     3     9     4
 0.0000000011     1     3     9     6
 -0.0014564415     1     3     9     7
 0.0008733119     1     3     9     8
 0.0000000007     1     3     9     9
 0.0000000033     1     3     9    10
 0.0040514681     1     3     9    12
 0.0000000030     1     3     9    13
 0.0000000006     1     3     9    16
 -0.0000000265     1     3    10     1
 0.0000000021     1     3    10     2
 0.0000000001     1     3    10     4
 0.0000000007     1     3    10     6
 -0.0009215158     1     3    10     7
 0.0017591180     1     3    10     8
 0.0000000015     1     3    10     9
 0.0000000022     1     3    10    10
 0.0017653588     1     3    10    12
 0.0000000015     1     3    10    13
 0.0000000004     1     3    10    16
 -0.0000000005     1     3    11     5
 0.0009449643     1     3    11    14
 0.0000000002     1     3    11    15
 -0.2383987989     1     3    12     1
 0.0145413939     1     3    12     2
 0.0045434375     1     3    12     4
 0.0053414759     1     3    12     6
 -0.0000000007     1     3    12     7
 -0.0000000045     1     3    12     8
 0.0048618568     1     3    12     9
 0.0022606261     1     3    12    10
 0.0000000006     1     3    12    12
 0.0036025904     1     3    12    13
 0.0087318995     1     3    12    16
 -0.0000000502     1     3    13     1
 0.0000000033     1     3    13     2
 0.0000000009     1     3    13     4
 0.0000000013     1     3    13     6
 0.0004837243     1     3    13     7
 0.0008034853     1     3    13     8
 0.0000000017     1     3    13     9
 0.0000000011     1     3    13    10
 -0.0001644418     1     3    13    12
 0.0000000009     1     3    13    13
 0.0000000020     1     3    13    16
 -0.0002833084     1     3    14     5
 0.0032666488     1     3    14    11
 0.0000000003     1     3    14    14
 -0.0026629604     1     3    14    15
 -0.0000000001     1     3    15    11
 -0.0023670102     1     3    15    14
 0.0000000003     1     3    15    15
 0.0000000163     1     3    16     1
 -0.0000000007     1     3    16     2
 -0.0000000001     1     3    16     4
 -0.0000000002     1     3    16     6
 -0.0001375965     1     3    16     7
 -0.0005042710     1     3    16     8
 -0.0000000008     1     3    16     9
 -0.0000000004     1     3    16    10
 0.0016807553     1     3    16    12
 0.0000000002     1     3    16    13
 -0.0000000004     1     3    16    16
 -0.0672599742     1     4     2     1
 -0.0062761601     1     4     2     2
 -0.0000000002     1     4     2     3
 -0.0002007229     1     4     2     6
 0.0000000002     1     4     2     7
 0.0000000003     1     4     2     8
 -0.0014484650     1     4     2     9
 0.0025463683     1     4     2    10
 -0.0000000005     1     4     2    12
 0.0010674159     1     4     2    13
 -0.0033093147     1     4     2    16
 0.0000000132     1     4     3     1
 -0.0000000009     1     4     3     2
 -0.0095724188     1     4     3     3
 -0.0000000001     1     4     3     6
 0.0017189050     1     4     3     7
 0.0021437464     1     4     3     8
 0.0000000018     1     4     3     9
 0.0000000003     1     4     3    10
 -0.0034893261     1     4     3    12
 -0.0000000006     1     4     3    13
 -0.9506024687     1     4     4     1
 0.0363229832     1     4     4     2
 -0.0000000010     1     4     4     3
 0.0084946795     1     4     4     6
 -0.0000000003     1     4     4     7
 -0.0000000065     1     4     4     8
 0.0050252605     1     4     4     9
 0.0087000344     1     4     4    10
 -0.0000000001     1     4     4    12
 0.0029225530     1     4     4    13
 0.0115997268     1     4     4    16
 -0.0127733870     1     4     5     5
 0.0070816624     1     4     5    11
 0.0000000010     1     4     5    14
 0.0024822227     1     4     5    15
 0.0733244017     1     4     6     1
 -0.0062715377     1     4     6     2
 0.0000000004     1     4     6     3
 -0.0032892595     1     4     6     6
 -0.0000000002     1     4     6     7
 0.0000000014     1     4     6     8
 -0.0002129387     1     4     6     9
 -0.0037963099     1     4     6    10
 0.0000000005     1     4     6    12
 -0.0016102664     1     4     6    13
 -0.0022699086     1     4     6    16
 0.0000000093     1     4     7     1
 -0.0000000003     1     4     7     2
 0.0026028739     1     4     7     3
 -0.0000000003     1     4     7     6
 -0.0020144131     1     4     7     7
 0.0009712705     1     4     7     8
 0.0000000005     1     4     7     9
 0.0000000002     1     4     7    10
 0.0022937431     1     4     7    12
 0.0000000005     1     4     7    13
 -0.0000000002     1     4     7    16
 -0.0000000056     1     4     8     1
 0.0000000025     1     4     8     2
 -0.0017834001     1     4     8     3
 0.0000000009     1     4     8     6
 0.0021831666     1     4     8     7
 -0.0013345387     1     4     8     8
 0.0000000012     1     4     8     9
 0.0000000022     1     4     8    10
 -0.0051603875     1     4     8    12
 -0.0000000008     1     4     8    13
 0.0000000008     1     4     8    16
 -0.0871786863     1     4     9     1
 0.0031148448     1     4     9     2
 -0.0000000011     1     4     9     3
 0.0018427809     1     4     9     6
 0.0000000014     1     4     9     7
 -0.0000000002     1     4     9     8
 -0.0005848052     1     4     9     9
 -0.0007659857     1     4     9    10
 -0.0000000042     1     4     9    12
 0.0017520815     1     4     9    13
 0.0019985789     1     4     9    16
 0.2269758921     1     4    10     1
 -0.0151266661     1     4    10     2
 -0.0000000001     1     4    10     3
 -0.0066496944     1     4    10     6
 0.0000000008     1     4    10     7
 0.0000000050     1     4    10     8
 -0.0045891196     1     4    10     9
 -0.0049908151     1     4    10    10
 -0.0000000009     1     4    10    12
 -0.0046904755     1     4    10    13
 -0.0076321729     1     4    10    16
 0.0058103130     1     4    11     5
 -0.0043695275     1     4    11    11
 -0.0000000002     1     4    11    14
 0.0014101228     1     4    11    15
 -0.0000000210     1     4    12     1
 0.0000000013     1     4    12     2
 -0.0045434375     1     4    12     3
 0.0000000009     1     4    12     6
 0.0020541442     1     4    12     7
 -0.0026700545     1     4    12     8
 -0.0000000019     1     4    12     9
 0.0000000002     1     4    12    10
 -0.0037266991     1     4    12    12
 -0.0000000001     1     4    12    13
 0.0000000006     1     4    12    16
 0.0511535420     1     4    13     1
 -0.0050031119     1     4    13     2
 -0.0000000009     1     4    13     3
 -0.0026486903     1     4    13     6
 0.0000000006     1     4    13     7
 0.0000000006     1     4    13     8
 0.0004937844     1     4    13     9
 -0.0048360443     1     4    13    10
 -0.0000000005     1     4    13    12
 -0.0031204447     1     4    13    13
 -0.0008878731     1     4    13    16
 0.0000000006     1     4    14     5
 0.0000000001     1     4    14    11
 -0.0022882584     1     4    14    14
 -0.0008589384     1     4    15     5
 0.0036963233     1     4    15    11
 0.0000000004     1     4    15    14
 -0.0015079158     1     4    15    15
 -0.1255753327     1     4    16     1
 0.0045231215     1     4    16     2
 0.0000000001     1     4    16     3
 0.0017907321     1     4    16     6
 -0.0000000001     1     4    16     7
 -0.0000000016     1     4    16     8
 0.0015996758     1     4    16     9
 0.0004738080     1     4    16    10
 -0.0000000001     1     4    16    12
 0.0018561700     1     4    16    13
 0.0025325532     1     4    16    16
 0.0048575424     1     5     2    11
 0.0000000007     1     5     2    14
 -0.0012652225     1     5     2    15
 -0.0000000006     1     5     3    11
 0.0036890525     1     5     3    14
 -0.0000000004     1     5     3    15
 0.0008778747     1     5     4    11
 0.0000000004     1     5     4    14
 0.0034956332     1     5     4    15
 -0.9991581602     1     5     5     1
 0.0412506570     1     5     5     2
 -0.0000000015     1     5     5     3
 0.0127733870     1     5     5     4
 0.0082603306     1     5     5     6
 -0.0000000003     1     5     5     7
 -0.0000000093     1     5     5     8
 0.0098351547     1     5     5     9
 0.0040360354     1     5     5    10
 -0.0000000007     1     5     5    12
 0.0072643773     1     5     5    13
 0.0116347102     1     5     5    16
 -0.0021013117     1     5     6    11
 -0.0000000003     1     5     6    14
 -0.0000994118     1     5     6    15
 0.0000000001     1     5     7    11
 0.0003989667     1     5     7    14
 -0.0000000017     1     5     8    11
 0.0004337027     1     5     8    14
 -0.0000000003     1     5     8    15
 0.0018265496     1     5     9    11
 0.0000000006     1     5     9    14
 0.0002292928     1     5     9    15
 0.0004228691     1     5    10    11
 0.0000000001     1     5    10    14
 0.0004254265     1     5    10    15
 0.3051613716     1     5    11     1
 -0.0184111793     1     5    11     2
 0.0000000005     1     5    11     3
 -0.0058103130     1     5    11     4
 -0.0072732275     1     5    11     6
 0.0000000002     1     5    11     7
 0.0000000042     1     5    11     8
 -0.0041641841     1     5    11     9
 -0.0024379802     1     5    11    10
 0.0000000007     1     5    11    12
 -0.0041512927     1     5    11    13
 -0.0126254386     1     5    11    16
 0.0000088949     1     5    12    14
 0.0000000001     1     5    12    15
 0.0004342369     1     5    13    11
 0.0000000001     1     5    13    14
 -0.0004870285     1     5    13    15
 0.0000000342     1     5    14     1
 -0.0000000022     1     5    14     2
 0.0002833084     1     5    14     3
 -0.0000000006     1     5    14     4
 -0.0000000007     1     5    14     6
 0.0016389371     1     5    14     7
 -0.0005148085     1     5    14     8
 -0.0000000007     1     5    14     9
 -0.0000000003     1     5    14    10
 -0.0023400216     1     5    14    12
 -0.0000000010     1     5    14    13
 -0.0000000015     1     5    14    16
 -0.0334039035     1     5    15     1
 0.0021927886     1     5    15     2
 0.0008589384     1     5    15     4
 0.0013303224     1     5    15     6
 -0.0000000001     1     5    15     7
 -0.0000000013     1     5    15     8
 0.0005550822     1     5    15     9
 0.0027902781     1     5    15    10
 0.0000000001     1     5    15    12
 0.0007654454     1     5    15    13
 -0.0003964875     1     5    15    16
 -0.0058082469     1     5    16    11
 -0.0000000007     1     5    16    14
 -0.0006270608     1     5    16    15
 -0.1334344861     1     6     2     1
 0.0012539837     1     6     2     2
 -0.0000000003     1     6     2     3
 0.0002007229     1     6     2     4
 0.0000000001     1     6     2     7
 -0.0000000001     1     6     2     8
 0.0003749211     1     6     2     9
 -0.0007818385     1     6     2    10
 0.0000000001     1     6     2    12
 -0.0003388671     1     6     2    13
 0.0006899230     1     6     2    16
 0.0000000166     1     6     3     1
 -0.0000000010     1     6     3     2
 -0.0041956322     1     6     3     3
 0.0000000001     1     6     3     4
 0.0018785031     1     6     3     7
 -0.0023221397     1     6     3     8
 -0.0000000015     1     6     3     9
 -0.0000000007     1     6     3    10
 -0.0036199830     1     6     3    12
 -0.0000000010     1     6     3    13
 -0.0000000001     1     6     3    16
 0.0733244017     1     6     4     1
 -0.0065946308     1     6     4     2
 0.0000000006     1     6     4     3
 -0.0084946795     1     6     4     4
 0.0000000001     1     6     4     7
 0.0000000005     1     6     4     8
 -0.0020782812     1     6     4     9
 0.0029025274     1     6     4    10
 -0.0000000004     1     6     4    12
 0.0010561916     1     6     4    13
 -0.0041297693     1     6     4    16
 -0.0082603306     1     6     5     5
 0.0051815172     1     6     5    11
 0.0000000004     1     6     5    14
 -0.0014417283     1     6     5    15
 -0.3190414563     1     6     6     1
 0.0014412580     1     6     6     2
 0.0000000002     1     6     6     3
 0.0032892595     1     6     6     4
 -0.0000000001     1     6     6     7
 0.0000000001     1     6     6     8
 0.0004624141     1     6     6     9
 -0.0010800594     1     6     6    10
 0.0000000004     1     6     6    12
 -0.0002933493     1     6     6    13
 0.0011422038     1     6     6    16
 -0.0000000037     1     6     7     1
 0.0000000006     1     6     7     2
 0.0037529812     1     6     7     3
 0.0000000003     1     6     7     4
 -0.0012491120     1     6     7     7
 0.0011044177     1     6     7     8
 0.0000000009     1     6     7     9
 0.0000000002     1     6     7    10
 0.0026899163     1     6     7    12
 0.0000000006     1     6     7    13
 0.0000000766     1     6     8     1
 -0.0000000011     1     6     8     2
 -0.0019585119     1     6     8     3
 -0.0000000009     1     6     8     4
 0.0004611416     1     6     8     7
 -0.0004525171     1     6     8     8
 -0.0000000009     1     6     8     9
 -0.0000000004     1     6     8    10
 -0.0006506388     1     6     8    12
 -0.0000000002     1     6     8    13
 -0.0000000004     1     6     8    16
 -0.0411875454     1     6     9     1
 -0.0003402908     1     6     9     2
 -0.0000000011     1     6     9     3
 -0.0018427809     1     6     9     4
 0.0000000002     1     6     9     7
 -0.0000000006     1     6     9     8
 -0.0001203879     1     6     9     9
 0.0012684165     1     6     9    10
 -0.0000000003     1     6     9    12
 -0.0000356493     1     6     9    13
 -0.0008627698     1     6     9    16
 -0.1075197389     1     6    10     1
 0.0031714819     1     6    10     2
 -0.0000000007     1     6    10     3
 0.0066496944     1     6    10     4
 -0.0000000008     1     6    10     8
 0.0018978532     1     6    10     9
 -0.0028558207     1     6    10    10
 0.0000000001     1     6    10    12
 -0.0002748438     1     6    10    13
 0.0031079120     1     6    10    16
 0.0072732275     1     6    11     5
 -0.0047172540     1     6    11    11
 -0.0000000006     1     6    11    14
 0.0004088550     1     6    11    15
 0.0000000224     1     6    12     1
 -0.0000000011     1     6    12     2
 -0.0053414759     1     6    12     3
 -0.0000000009     1     6    12     4
 0.0020628270     1     6    12     7
 -0.0013879616     1     6    12     8
 -0.0000000011     1     6    12     9
 -0.0000000002     1     6    12    10
 -0.0039592976     1     6    12    12
 -0.0000000010     1     6    12    13
 -0.0000000004     1     6    12    16
 -0.0691697478     1     6    13     1
 0.0011165595     1     6    13     2
 -0.0000000013     1     6    13     3
 0.0026486903     1     6    13     4
 0.0000000003     1     6    13     7
 -0.0000000004     1     6    13     8
 0.0002267364     1     6    13     9
 -0.0004831918     1     6    13    10
 -0.0000000008     1     6    13    12
 0.0001670258     1     6    13    13
 0.0007221153     1     6    13    16
 0.0000000007     1     6    14     5
 -0.0000000006     1     6    14    11
 0.0005049649     1     6    14    14
 0.0000000002     1     6    14    15
 -0.0013303224     1     6    15     5
 0.0001752995     1     6    15    11
 0.0000000001     1     6    15    14
 0.0002017311     1     6    15    15
 -0.0832998014     1     6    16     1
 -0.0005308831     1     6    16     2
 0.0000000002     1     6    16     3
 -0.0017907321     1     6    16     4
 -0.0000000001     1     6    16     7
 0.0000000003     1     6    16     8
 -0.0006205865     1     6    16     9
 0.0010021574     1     6    16    10
 -0.0000623591     1     6    16    13
 -0.0010467463     1     6    16    16
 0.0000000094     1     7     2     1
 -0.0000000004     1     7     2     2
 -0.0020832091     1     7     2     3
 -0.0000000002     1     7     2     4
 -0.0000000001     1     7     2     6
 0.0003178438     1     7     2     8
 0.0000000003     1     7     2     9
 0.0000000001     1     7     2    10
 0.0005980359     1     7     2    12
 0.0000000001     1     7     2    13
 -0.0000000002     1     7     2    16
 0.1548418575     1     7     3     1
 -0.0111480347     1     7     3     2
 0.0000000006     1     7     3     3
 -0.0017189050     1     7     3     4
 -0.0018785031     1     7     3     6
 0.0000000006     1     7     3     8
 -0.0003964911     1     7     3     9
 -0.0002779882     1     7     3    10
 0.0000000005     1     7     3    12
 -0.0019944295     1     7     3    13
 -0.0036892179     1     7     3    16