&FCI NORB= 12,NELEC= 10,MS2=0,
 ORBSYM=1,1,1,1,1,1,1,1,1,1,1,1
 ISYM=1,
&END
 0.9851457811     1     1     2     2
 -0.0673456612     1     1     2     4
 0.1056482014     1     1     2     6
 0.0529450344     1     1     2     8
 0.1097052191     1     1     2    11
 0.8719921924     1     1     3     3
 -0.1157498159     1     1     3     7
 0.0438710677     1     1     3     9
 -0.2204509888     1     1     3    12
 -0.0673456612     1     1     4     2
 0.9515021973     1     1     4     4
 0.0584239047     1     1     4     6
 -0.1216247021     1     1     4     8
 0.1581842059     1     1     4    11
 0.9977499670     1     1     5     5
 -0.2202780181     1     1     5    10
 0.1056482014     1     1     6     2
 0.0584239047     1     1     6     4
 0.2794168608     1     1     6     6
 0.0146713859     1     1     6     8
 0.1063406433     1     1     6    11
 -0.1157498159     1     1     7     3
 0.2408325539     1     1     7     7
 -0.0303520666     1     1     7     9
 0.1281025962     1     1     7    12
 0.0529450344     1     1     8     2
 -0.1216247021     1     1     8     4
 0.0146713859     1     1     8     6
 0.3084776589     1     1     8     8
 -0.0208806399     1     1     8    11
 0.0438710677     1     1     9     3
 -0.0303520666     1     1     9     7
 0.3135935503     1     1     9     9
 -0.0676036036     1     1     9    12
 -0.2202780181     1     1    10     5
 0.3949416198     1     1    10    10
 0.1097052191     1     1    11     2
 0.1581842059     1     1    11     4
 0.1063406433     1     1    11     6
 -0.0208806399     1     1    11     8
 0.4224254997     1     1    11    11
 -0.2204509888     1     1    12     3
 0.1281025962     1     1    12     7
 -0.0676036036     1     1    12     9
 0.4505011027     1     1    12    12
 -0.9851457811     1     2     2     1
 -0.0069717509     1     2     2     4
 -0.0010141258     1     2     2     6
 0.0021017464     1     2     2     8
 -0.0033724419     1     2     2    11
 -0.0310040602     1     2     3     3
 0.0084200557     1     2     3     7
 -0.0051396915     1     2     3     9
 0.0198031769     1     2     3    12
 0.0673456612     1     2     4     1
 -0.0358616028     1     2     4     4
 -0.0054217028     1     2     4     6
 0.0077447903     1     2     4     8
 -0.0143612713     1     2     4    11
 -0.0407383824     1     2     5     5
 0.0168707757     1     2     5    10
 -0.1056482014     1     2     6     1
 -0.0052304401     1     2     6     4
 -0.0010154318     1     2     6     6
 0.0011860820     1     2     6     8
 -0.0027673869     1     2     6    11
 0.0062632838     1     2     7     3
 -0.0021552383     1     2     7     7
 0.0012284423     1     2     7     9
 -0.0052582744     1     2     7    12
 -0.0529450344     1     2     8     1
 0.0056429745     1     2     8     4
 0.0007824826     1     2     8     6
 -0.0020880440     1     2     8     8
 0.0030447037     1     2     8    11
 -0.0034286940     1     2     9     3
 0.0010754968     1     2     9     7
 -0.0008493699     1     2     9     9
 0.0025020714     1     2     9    12
 0.0129568557     1     2    10     5
 -0.0073294615     1     2    10    10
 -0.1097052191     1     2    11     1
 -0.0119542315     1     2    11     4
 -0.0023093591     1     2    11     6
 0.0035516965     1     2    11     8
 -0.0062392058     1     2    11    11
 0.0136085188     1     2    12     3
 -0.0048583407     1     2    12     7
 0.0026255666     1     2    12     9
 -0.0111558155     1     2    12    12
 0.0015883563     1     3     2     7
 -0.0014043107     1     3     2     9
 0.0049862526     1     3     2    12
 -0.8719921924     1     3     3     1
 0.0310040602     1     3     3     2
 -0.0105895892     1     3     3     4
 0.0035569762     1     3     3     6
 0.0036386048     1     3     3     8
 0.0002166115     1     3     3    11
 0.0007079167     1     3     4     7
 -0.0028752956     1     3     4     9
 0.0021611661     1     3     4    12
 -0.0015108067     1     3     6     7
 -0.0003270440     1     3     6     9
 -0.0012988480     1     3     6    12
 0.1157498159     1     3     7     1
 -0.0062632838     1     3     7     2
 0.0022186204     1     3     7     4
 -0.0026869671     1     3     7     6
 -0.0014550941     1     3     7     8
 -0.0016294288     1     3     7    11
 -0.0007637040     1     3     8     7
 -0.0007804534     1     3     8     9
 -0.0021470091     1     3     8    12
 -0.0438710677     1     3     9     1
 0.0034286940     1     3     9     2
 -0.0011002989     1     3     9     4
 0.0008594658     1     3     9     6
 -0.0009920085     1     3     9     8
 0.0025618009     1     3     9    11
 -0.0010720214     1     3    11     7
 0.0009711013     1     3    11     9
 -0.0027747448     1     3    11    12
 0.2204509888     1     3    12     1
 -0.0136085188     1     3    12     2
 0.0047139338     1     3    12     4
 -0.0042779852     1     3    12     6
 -0.0035499912     1     3    12     8
 -0.0046328074     1     3    12    11
 0.0673456612     1     4     2     1
 0.0069717509     1     4     2     2
 0.0002580244     1     4     2     6
 0.0015724393     1     4     2     8
 -0.0013789269     1     4     2    11
 0.0105895892     1     4     3     3
 -0.0016490451     1     4     3     7
 -0.0017192993     1     4     3     9
 -0.0028540217     1     4     3    12
 -0.9515021973     1     4     4     1
 0.0358616028     1     4     4     2
 0.0069373919     1     4     4     6
 0.0023648171     1     4     4     8
 0.0095432506     1     4     4    11
 0.0136912738     1     4     5     5
 -0.0055317356     1     4     5    10
 -0.0584239047     1     4     6     1
 0.0052304401     1     4     6     2
 0.0026315206     1     4     6     6
 -0.0007016019     1     4     6     8
 0.0031588030     1     4     6    11
 -0.0022186204     1     4     7     3
 0.0014695163     1     4     7     7
 -0.0007909961     1     4     7     9
 0.0017613948     1     4     7    12
 0.1216247021     1     4     8     1
 -0.0056429745     1     4     8     2
 -0.0025605510     1     4     8     6
 -0.0018540081     1     4     8     8
 -0.0009294544     1     4     8    11
 0.0011002989     1     4     9     3
 -0.0015100012     1     4     9     7
 -0.0001297828     1     4     9     9
 -0.0035187450     1     4     9    12
 -0.0045815065     1     4    10     5
 0.0022808409     1     4    10    10
 -0.1581842059     1     4    11     1
 0.0119542315     1     4    11     2
 0.0045081805     1     4    11     6
 0.0020961918     1     4    11     8
 0.0062326199     1     4    11    11
 -0.0047139338     1     4    12     3
 0.0019235832     1     4    12     7
 -0.0019564117     1     4    12     9
 0.0048253954     1     4    12    12
 0.0027568959     1     5     2    10
 -0.0006685087     1     5     4    10
 -0.9977499670     1     5     5     1
 0.0407383824     1     5     5     2
 -0.0136912738     1     5     5     4
 0.0064467091     1     5     5     6
 0.0072713373     1     5     5     8
 0.0076844345     1     5     5    11
 -0.0021137830     1     5     6    10
 0.0001815898     1     5     8    10
 0.2202780181     1     5    10     1
 -0.0129568557     1     5    10     2
 0.0045815065     1     5    10     4
 -0.0048591667     1     5    10     6
 -0.0028405952     1     5    10     8
 -0.0025562296     1     5    10    11
 0.0008326664     1     5    11    10
 -0.1056482014     1     6     2     1
 0.0010141258     1     6     2     2
 -0.0002580244     1     6     2     4
 0.0004115064     1     6     2     8
 -0.0004770760     1     6     2    11
 -0.0035569762     1     6     3     3
 0.0011498966     1     6     3     7
 -0.0011749356     1     6     3     9
 0.0029665528     1     6     3    12
 -0.0584239047     1     6     4     1
 0.0054217028     1     6     4     2
 -0.0069373919     1     6     4     4
 0.0018587122     1     6     4     8
 -0.0013716945     1     6     4    11
 -0.0064467091     1     6     5     5
 0.0026990225     1     6     5    10
 -0.2794168608     1     6     6     1
 0.0010154318     1     6     6     2
 -0.0026315206     1     6     6     4
 0.0004750414     1     6     6     8
 -0.0006377679     1     6     6    11
 0.0026869671     1     6     7     3
 -0.0006579310     1     6     7     7
 0.0003751743     1     6     7     9
 -0.0018216732     1     6     7    12
 -0.0146713859     1     6     8     1
 -0.0007824826     1     6     8     2
 0.0025605510     1     6     8     4
 -0.0009745843     1     6     8     8
 0.0010551156     1     6     8    11
 -0.0008594658     1     6     9     3
 0.0000534533     1     6     9     7
 -0.0001981430     1     6     9     9
 0.0001127233     1     6     9    12
 0.0048591667     1     6    10     5
 -0.0022789886     1     6    10    10
 -0.1063406433     1     6    11     1
 0.0023093591     1     6    11     2
 -0.0045081805     1     6    11     4
 0.0014814099     1     6    11     8
 -0.0009663226     1     6    11    11
 0.0042779852     1     6    12     3
 -0.0012331621     1     6    12     7
 0.0005303736     1     6    12     9
 -0.0027743174     1     6    12    12
 -0.0015883563     1     7     2     3
 0.0001475106     1     7     2     9
 -0.0003732850     1     7     2    12
 0.1157498159     1     7     3     1
 -0.0084200557     1     7     3     2
 0.0016490451     1     7     3     4
 -0.0011498966     1     7     3     6
 -0.0007052211     1     7     3     8
 -0.0005084826     1     7     3    11
 -0.0007079167     1     7     4     3
 0.0007107448     1     7     4     9
 -0.0001680276     1     7     4    12
 0.0015108067     1     7     6     3
 0.0003215770     1     7     6     9
 -0.0005870129     1     7     6    12
 -0.2408325539     1     7     7     1
 0.0021552383     1     7     7     2
 -0.0014695163     1     7     7     4
 0.0006579310     1     7     7     6
 0.0006012100     1     7     7     8
 0.0001861118     1     7     7    11
 0.0007637040     1     7     8     3
 0.0003376689     1     7     8     9
 0.0001079574     1     7     8    12
 0.0303520666     1     7     9     1
 -0.0010754968     1     7     9     2
 0.0015100012     1     7     9     4
 -0.0000534533     1     7     9     6
 0.0000049605     1     7     9     8
 -0.0002228612     1     7     9    11
 0.0010720214     1     7    11     3
 -0.0001064669     1     7    11     9
 0.0000889474     1     7    11    12
 -0.1281025962     1     7    12     1
 0.0048583407     1     7    12     2
 -0.0019235832     1     7    12     4
 0.0012331621     1     7    12     6
 0.0011431799     1     7    12     8
 0.0012438975     1     7    12    11
 -0.0529450344     1     8     2     1
 -0.0021017464     1     8     2     2
 -0.0015724393     1     8     2     4
 -0.0004115064     1     8     2     6
 -0.0005446120     1     8     2    11
 -0.0036386048     1     8     3     3
 0.0007052211     1     8     3     7
 0.0001848500     1     8     3     9
 0.0014759835     1     8     3    12
 0.1216247021     1     8     4     1
 -0.0077447903     1     8     4     2
 -0.0023648171     1     8     4     4
 -0.0018587122     1     8     4     6
 -0.0030363458     1     8     4    11
 -0.0072713373     1     8     5     5
 0.0030482289     1     8     5    10
 -0.0146713859     1     8     6     1
 -0.0011860820     1     8     6     2
 0.0007016019     1     8     6     4
 -0.0004750414     1     8     6     6
 -0.0004273448     1     8     6    11
 0.0014550941     1     8     7     3
 -0.0006012100     1     8     7     7
 0.0003315840     1     8     7     9
 -0.0010347443     1     8     7    12
 -0.3084776589     1     8     8     1
 0.0020880440     1     8     8     2
 0.0018540081     1     8     8     4
 0.0009745843     1     8     8     6
 0.0011722035     1     8     8    11
 0.0009920085     1     8     9     3
 -0.0000049605     1     8     9     7
 0.0002281109     1     8     9     9
 0.0000015304     1     8     9    12
 0.0028405952     1     8    10     5
 -0.0013231137     1     8    10    10
 0.0208806399     1     8    11     1
 -0.0035516965     1     8    11     2
 -0.0020961918     1     8    11     4
 -0.0014814099     1     8    11     6
 -0.0024820284     1     8    11    11
 0.0035499912     1     8    12     3
 -0.0011431799     1     8    12     7
 0.0008364429     1     8    12     9
 -0.0027224491     1     8    12    12
 0.0014043107     1     9     2     3
 -0.0001475106     1     9     2     7
 -0.0001285394     1     9     2    12
 -0.0438710677     1     9     3     1
 0.0051396915     1     9     3     2
 0.0017192993     1     9     3     4
 0.0011749356     1     9     3     6
 -0.0001848500     1     9     3     8
 0.0015678780     1     9     3    11
 0.0028752956     1     9     4     3
 -0.0007107448     1     9     4     7
 -0.0015453222     1     9     4    12
 0.0003270440     1     9     6     3
 -0.0003215770     1     9     6     7
 -0.0004185423     1     9     6    12
 0.0303520666     1     9     7     1
 -0.0012284423     1     9     7     2
 0.0007909961     1     9     7     4
 -0.0003751743     1     9     7     6
 -0.0003315840     1     9     7     8
 -0.0001176944     1     9     7    11
 0.0007804534     1     9     8     3
 -0.0003376689     1     9     8     7
 -0.0008337681     1     9     8    12
 -0.3135935503     1     9     9     1
 0.0008493699     1     9     9     2
 0.0001297828     1     9     9     4
 0.0001981430     1     9     9     6
 -0.0002281109     1     9     9     8
 0.0005715461     1     9     9    11
 -0.0009711013     1     9    11     3
 0.0001064669     1     9    11     7
 0.0001899475     1     9    11    12
 0.0676036036     1     9    12     1
 -0.0026255666     1     9    12     2
 0.0019564117     1     9    12     4
 -0.0005303736     1     9    12     6
 -0.0008364429     1     9    12     8
 -0.0002961794     1     9    12    11
 -0.0027568959     1    10     2     5
 0.0006685087     1    10     4     5
 0.2202780181     1    10     5     1
 -0.0168707757     1    10     5     2
 0.0055317356     1    10     5     4
 -0.0026990225     1    10     5     6
 -0.0030482289     1    10     5     8
 -0.0032771076     1    10     5    11
 0.0021137830     1    10     6     5
 -0.0001815898     1    10     8     5
 -0.3949416198     1    10    10     1
 0.0073294615     1    10    10     2
 -0.0022808409     1    10    10     4
 0.0022789886     1    10    10     6
 0.0013231137     1    10    10     8
 0.0013216706     1    10    10    11
 -0.0008326664     1    10    11     5
 -0.1097052191     1    11     2     1
 0.0033724419     1    11     2     2
 0.0013789269     1    11     2     4
 0.0004770760     1    11     2     6
 0.0005446120     1    11     2     8
 -0.0002166115     1    11     3     3
 0.0005084826     1    11     3     7
 -0.0015678780     1    11     3     9
 0.0017976943     1    11     3    12
 -0.1581842059     1    11     4     1
 0.0143612713     1    11     4     2
 -0.0095432506     1    11     4     4
 0.0013716945     1    11     4     6
 0.0030363458     1    11     4     8
 -0.0076844345     1    11     5     5
 0.0032771076     1    11     5    10
 -0.1063406433     1    11     6     1
 0.0027673869     1    11     6     2
 -0.0031588030     1    11     6     4
 0.0006377679     1    11     6     6
 0.0004273448     1    11     6     8
 0.0016294288     1    11     7     3
 -0.0001861118     1    11     7     7
 0.0001176944     1    11     7     9
 -0.0011550514     1    11     7    12
 0.0208806399     1    11     8     1
 -0.0030447037     1    11     8     2
 0.0009294544     1    11     8     4
 -0.0010551156     1    11     8     6
 -0.0011722035     1    11     8     8
 -0.0025618009     1    11     9     3
 0.0002228612     1    11     9     7
 -0.0005715461     1    11     9     9
 0.0004862556     1    11     9    12
 0.0025562296     1    11    10     5
 -0.0013216706     1    11    10    10
 -0.4224254997     1    11    11     1
 0.0062392058     1    11    11     2
 -0.0062326199     1    11    11     4
 0.0009663226     1    11    11     6
 0.0024820284     1    11    11     8
 0.0046328074     1    11    12     3
 -0.0012438975     1    11    12     7
 0.0002961794     1    11    12     9
 -0.0026926957     1    11    12    12
 -0.0049862526     1    12     2     3
 0.0003732850     1    12     2     7
 0.0001285394     1    12     2     9
 0.2204509888     1    12     3     1
 -0.0198031769     1    12     3     2
 0.0028540217     1    12     3     4
 -0.0029665528     1    12     3     6
 -0.0014759835     1    12     3     8
 -0.0017976943     1    12     3    11
 -0.0021611661     1    12     4     3
 0.0001680276     1    12     4     7
 0.0015453222     1    12     4     9
 0.0012988480     1    12     6     3
 0.0005870129     1    12     6     7
 0.0004185423     1    12     6     9
 -0.1281025962     1    12     7     1
 0.0052582744     1    12     7     2
 -0.0017613948     1    12     7     4
 0.0018216732     1    12     7     6
 0.0010347443     1    12     7     8
 0.0011550514     1    12     7    11
 0.0021470091     1    12     8     3
 -0.0001079574     1    12     8     7
 0.0008337681     1    12     8     9
 0.0676036036     1    12     9     1
 -0.0025020714     1    12     9     2
 0.0035187450     1    12     9     4
 -0.0001127233     1    12     9     6
 -0.0000015304     1    12     9     8
 -0.0004862556     1    12     9    11
 0.0027747448     1    12    11     3
 -0.0000889474     1    12    11     7
 -0.0001899475     1    12    11     9
 -0.4505011027     1    12    12     1
 0.0111558155     1    12    12     2
 -0.0048253954     1    12    12     4
 0.0027743174     1    12    12     6
 0.0027224491     1    12    12     8
 0.0026926957     1    12    12    11
 -0.9851457811     2     1     1     2
 0.0673456612     2     1     1     4
 -0.1056482014     2     1     1     6
 -0.0529450344     2     1     1     8
 -0.1097052191     2     1     1    11
 -0.0310040602     2     1     3     3
 0.0062632838     2     1     3     7
 -0.0034286940     2     1     3     9
 0.0136085188     2     1     3    12
 -0.0069717509     2     1     4     2
 -0.0358616028     2     1     4     4
 -0.0052304401     2     1     4     6
 0.0056429745     2     1     4     8
 -0.0119542315     2     1     4    11
 -0.0407383824     2     1     5     5
 0.0129568557     2     1     5    10
 -0.0010141258     2     1     6     2
 -0.0054217028     2     1     6     4
 -0.0010154318     2     1     6     6
 0.0007824826     2     1     6     8
 -0.0023093591     2     1     6    11
 0.0084200557     2     1     7     3
 -0.0021552383     2     1     7     7
 0.0010754968     2     1     7     9
 -0.0048583407     2     1     7    12
 0.0021017464     2     1     8     2
 0.0077447903     2     1     8     4
 0.0011860820     2     1     8     6
 -0.0020880440     2     1     8     8
 0.0035516965     2     1     8    11
 -0.0051396915     2     1     9     3
 0.0012284423     2     1     9     7
 -0.0008493699     2     1     9     9
 0.0026255666     2     1     9    12
 0.0168707757     2     1    10     5
 -0.0073294615     2     1    10    10
 -0.0033724419     2     1    11     2
 -0.0143612713     2     1    11     4
 -0.0027673869     2     1    11     6
 0.0030447037     2     1    11     8
 -0.0062392058     2     1    11    11
 0.0198031769     2     1    12     3
 -0.0052582744     2     1    12     7
 0.0025020714     2     1    12     9
 -0.0111558155     2     1    12    12
 0.9851457811     2     2     1     1
 0.0069717509     2     2     1     4
 0.0010141258     2     2     1     6
 -0.0021017464     2     2     1     8
 0.0033724419     2     2     1    11
 0.5289006577     2     2     3     3
 -0.0495633003     2     2     3     7
 0.0076960044     2     2     3     9
 -0.0798091500     2     2     3    12
 0.0069717509     2     2     4     1
 0.5509317833     2     2     4     4
 0.0260653577     2     2     4     6
 -0.0524459487     2     2     4     8
 0.0625765524     2     2     4    11
 0.5777346289     2     2     5     5
 -0.0932443017     2     2     5    10
 0.0010141258     2     2     6     1
 0.0260653577     2     2     6     4
 0.2546410105     2     2     6     6
 0.0067363339     2     2     6     8
 0.0673107061     2     2     6    11
 -0.0495633003     2     2     7     3
 0.2241292238     2     2     7     7
 -0.0222171040     2     2     7     9
 0.0819085860     2     2     7    12
 -0.0021017464     2     2     8     1
 -0.0524459487     2     2     8     4
 0.0067363339     2     2     8     6
 0.2737205008     2     2     8     8
 -0.0015541028     2     2     8    11
 0.0076960044     2     2     9     3
 -0.0222171040     2     2     9     7
 0.2969807894     2     2     9     9
 -0.0470364789     2     2     9    12
 -0.0932443017     2     2    10     5
 0.3240007038     2     2    10    10
 0.0033724419     2     2    11     1
 0.0625765524     2     2    11     4
 0.0673107061     2     2    11     6
 -0.0015541028     2     2    11     8
 0.3470573622     2     2    11    11
 -0.0798091500     2     2    12     3
 0.0819085860     2     2    12     7
 -0.0470364789     2     2    12     9
 0.3501526881     2     2    12    12
 -0.0015883563     2     3     1     7
 0.0014043107     2     3     1     9
 -0.0049862526     2     3     1    12
 0.0310040602     2     3     3     1
 -0.5289006577     2     3     3     2
 0.0018074552     2     3     3     4
 -0.0485045294     2     3     3     6
 -0.0246852921     2     3     3     8
 -0.0611481240     2     3     3    11
 0.0057484416     2     3     4     7
 -0.0198162262     2     3     4     9
 0.0152567456     2     3     4    12
 -0.0246560622     2     3     6     7
 -0.0000380855     2     3     6     9
 -0.0195932642     2     3     6    12
 -0.0084200557     2     3     7     1
 0.0495633003     2     3     7     2
 0.0005803617     2     3     7     4
 -0.0169937366     2     3     7     6
 -0.0027427879     2     3     7     8
 -0.0041837158     2     3     7    11
 -0.0070273296     2     3     8     7
 -0.0155047491     2     3     8     9
 -0.0201088774     2     3     8    12
 0.0051396915     2     3     9     1
 -0.0076960044     2     3     9     2
 -0.0038674767     2     3     9     4
 -0.0006722410     2     3     9     6
 -0.0178519264     2     3     9     8
 0.0182918983     2     3     9    11
 -0.0137270802     2     3    11     7
 0.0175329981     2     3    11     9
 -0.0346817119     2     3    11    12
 -0.0198031769     2     3    12     1
 0.0798091500     2     3    12     2
 0.0009833750     2     3    12     4
 -0.0071752982     2     3    12     6
 -0.0122796183     2     3    12     8
 -0.0201258974     2     3    12    11
 -0.0673456612     2     4     1     1
 -0.0069717509     2     4     1     2
 -0.0002580244     2     4     1     6
 -0.0015724393     2     4     1     8
 0.0013789269     2     4     1    11
 -0.0018074552     2     4     3     3
 0.0051811071     2     4     3     7
 -0.0161582780     2     4     3     9
 0.0143706872     2     4     3    12
 0.0358616028     2     4     4     1
 -0.5509317833     2     4     4     2
 -0.0491998227     2     4     4     6
 -0.0173325890     2     4     4     8
 -0.0472976564     2     4     4    11
 -0.0042418974     2     4     5     5
 0.0029364268     2     4     5    10
 0.0054217028     2     4     6     1
 -0.0260653577     2     4     6     2
 0.0093292626     2     4     6     6
 -0.0160331826     2     4     6     8
 0.0081297908     2     4     6    11
 -0.0005803617     2     4     7     3
 0.0091783387     2     4     7     7
 -0.0078840507     2     4     7     9
 -0.0001795758     2     4     7    12
 -0.0077447903     2     4     8     1
 0.0524459487     2     4     8     2
 -0.0064710426     2     4     8     6
 -0.0142996345     2     4     8     8
 0.0193985612     2     4     8    11
 0.0038674767     2     4     9     3
 -0.0102789919     2     4     9     7
 -0.0079444735     2     4     9     9
 -0.0186352886     2     4     9    12
 0.0022240299     2     4    10     5
 -0.0064246825     2     4    10    10
 0.0143612713     2     4    11     1
 -0.0625765524     2     4    11     2
 0.0024984327     2     4    11     6
 0.0068852417     2     4    11     8
 0.0055850493     2     4    11    11
 -0.0009833750     2     4    12     3
 0.0012672862     2     4    12     7
 -0.0157984259     2     4    12     9
 0.0075165179     2     4    12    12
 -0.0027568959     2     5     1    10
 0.0007162390     2     5     4    10
 0.0407383824     2     5     5     1
 -0.5777346289     2     5     5     2
 0.0042418974     2     5     5     4
 -0.0487658175     2     5     5     6
 -0.0133491007     2     5     5     8
 -0.0367437305     2     5     5    11
 -0.0215999954     2     5     6    10
 0.0003754469     2     5     8    10
 -0.0168707757     2     5    10     1
 0.0932443017     2     5    10     2
 -0.0022240299     2     5    10     4
 -0.0077775785     2     5    10     6
 0.0052922669     2     5    10     8
 0.0174971469     2     5    10    11
 0.0045984975     2     5    11    10
 0.1056482014     2     6     1     1
 -0.0010141258     2     6     1     2
 0.0002580244     2     6     1     4
 -0.0004115064     2     6     1     8
 0.0004770760     2     6     1    11
 0.0485045294     2     6     3     3
 -0.0070916692     2     6     3     7
 0.0003019736     2     6     3     9
 -0.0115297010     2     6     3    12
 0.0052304401     2     6     4     1
 -0.0260653577     2     6     4     2
 0.0491998227     2     6     4     4
 -0.0092054057     2     6     4     8
 0.0054107992     2     6     4    11
 0.0487658175     2     6     5     5
 -0.0134064034     2     6     5    10
 0.0010154318     2     6     6     1
 -0.2546410105     2     6     6     2
 -0.0093292626     2     6     6     4
 -0.0009024081     2     6     6     8
 0.0033789623     2     6     6    11
 0.0169937366     2     6     7     3
 0.0031138670     2     6     7     7
 -0.0036005788     2     6     7     9
 0.0100506735     2     6     7    12
 -0.0011860820     2     6     8     1
 -0.0067363339     2     6     8     2
 0.0064710426     2     6     8     4
 0.0067559184     2     6     8     8
 -0.0004337852     2     6     8    11
 0.0006722410     2     6     9     3
 -0.0018954858     2     6     9     7
 0.0100520056     2     6     9     9
 -0.0060003850     2     6     9    12
 0.0077775785     2     6    10     5
 0.0114794396     2     6    10    10
 0.0027673869     2     6    11     1
 -0.0673107061     2     6    11     2
 -0.0024984327     2     6    11     4
 -0.0013881798     2     6    11     8
 0.0099656357     2     6    11    11
 0.0071752982     2     6    12     3
 0.0052335497     2     6    12     7
 -0.0052603302     2     6    12     9
 0.0146743015     2     6    12    12
 0.0015883563     2     7     1     3
 -0.0001475106     2     7     1     9
 0.0003732850     2     7     1    12
 -0.0062632838     2     7     3     1
 0.0495633003     2     7     3     2
 -0.0051811071     2     7     3     4
 0.0070916692     2     7     3     6
 0.0039067095     2     7     3     8
 0.0088008187     2     7     3    11
 -0.0057484416     2     7     4     3
 0.0020688758     2     7     4     9
 -0.0014487135     2     7     4    12
 0.0246560622     2     7     6     3
 -0.0017200159     2     7     6     9
 0.0048288370     2     7     6    12
 0.0021552383     2     7     7     1
 -0.2241292238     2     7     7     2
 -0.0091783387     2     7     7     4
 -0.0031138670     2     7     7     6
 0.0001079754     2     7     7     8
 0.0007661806     2     7     7    11
 0.0070273296     2     7     8     3
 0.0014017537     2     7     8     9
 0.0007207110     2     7     8    12
 -0.0012284423     2     7     9     1
 0.0222171040     2     7     9     2
 0.0102789919     2     7     9     4
 0.0018954858     2     7     9     6
 0.0012963070     2     7     9     8
 0.0004454164     2     7     9    11
 0.0137270802     2     7    11     3
 -0.0021368756     2     7    11     9
 0.0019743626     2     7    11    12
 0.0052582744     2     7    12     1
 -0.0819085860     2     7    12     2
 -0.0012672862     2     7    12     4
 -0.0052335497     2     7    12     6
 -0.0006676664     2     7    12     8
 -0.0041979193     2     7    12    11
 0.0529450344     2     8     1     1
 0.0021017464     2     8     1     2
 0.0015724393     2     8     1     4
 0.0004115064     2     8     1     6
 0.0005446120     2     8     1    11
 0.0246852921     2     8     3     3
 -0.0039067095     2     8     3     7
 0.0019350945     2     8     3     9
 -0.0072476444     2     8     3    12
 -0.0056429745     2     8     4     1
 0.0524459487     2     8     4     2
 0.0173325890     2     8     4     4
 0.0092054057     2     8     4     6
 0.0118685659     2     8     4    11
 0.0133491007     2     8     5     5
 -0.0048848602     2     8     5    10
 -0.0007824826     2     8     6     1
 -0.0067363339     2     8     6     2
 0.0160331826     2     8     6     4
 0.0009024081     2     8     6     6
 0.0009476933     2     8     6    11
 0.0027427879     2     8     7     3
 -0.0001079754     2     8     7     7
 0.0001481057     2     8     7     9
 0.0013380393     2     8     7    12
 0.0020880440     2     8     8     1
 -0.2737205008     2     8     8     2
 0.0142996345     2     8     8     4
 -0.0067559184     2     8     8     6
 -0.0048946024     2     8     8    11
 0.0178519264     2     8     9     3
 -0.0012963070     2     8     9     7
 0.0034957214     2     8     9     9
 -0.0008469280     2     8     9    12
 -0.0052922669     2     8    10     5
 0.0046036387     2     8    10    10
 -0.0030447037     2     8    11     1
 0.0015541028     2     8    11     2
 -0.0068852417     2     8    11     4
 0.0013881798     2     8    11     6
 0.0046444655     2     8    11    11
 0.0122796183     2     8    12     3