&FCI NORB=  9,NELEC=  6,MS2=0,
 ORBSYM=1,1,1,1,1,1,1,1,1
 ISYM=1,
&END
 0.1368835857     1     1     2     2
 0.0153491370     1     1     2     4
 0.0102803361     1     1     2     6
 -0.0009591350     1     1     2     8
 0.1752574246     1     1     3     3
 0.0331177437     1     1     3     5
 -0.0009025911     1     1     3     7
 -0.0022191582     1     1     3     9
 0.0153491370     1     1     4     2
 0.1902757442     1     1     4     4
 -0.0388174079     1     1     4     6
 -0.0029591681     1     1     4     8
 0.0331177437     1     1     5     3
 0.1877140002     1     1     5     5
 -0.0107364618     1     1     5     7
 0.0208353151     1     1     5     9
 0.0102803361     1     1     6     2
 -0.0388174079     1     1     6     4
 0.2151499324     1     1     6     6
 0.0313386239     1     1     6     8
 -0.0009025911     1     1     7     3
 -0.0107364618     1     1     7     5
 0.1877577538     1     1     7     7
 0.0343188455     1     1     7     9
 -0.0009591350     1     1     8     2
 -0.0029591681     1     1     8     4
 0.0313386239     1     1     8     6
 0.1651285203     1     1     8     8
 -0.0022191582     1     1     9     3
 0.0208353151     1     1     9     5
 0.0343188455     1     1     9     7
 0.1693466497     1     1     9     9
 -0.1368835857     1     2     2     1
 -0.0492819697     1     2     2     3
 -0.0015590720     1     2     2     5
 0.0039250504     1     2     2     7
 0.0048961178     1     2     2     9
 0.0446410805     1     2     3     4
 -0.0217946578     1     2     3     6
 -0.0030562139     1     2     3     8
 -0.0153491370     1     2     4     1
 0.0125904346     1     2     4     3
 -0.0501106138     1     2     4     5
 0.0067076568     1     2     4     7
 -0.0115406446     1     2     4     9
 -0.0354117369     1     2     5     4
 -0.0559920598     1     2     5     6
 -0.0168359196     1     2     5     8
 -0.0102803361     1     2     6     1
 -0.0163618381     1     2     6     3
 -0.0454383507     1     2     6     5
 -0.0062599792     1     2     6     7
 0.0085451448     1     2     6     9
 0.0048347589     1     2     7     4
 -0.0058600487     1     2     7     6
 0.0508151941     1     2     7     8
 0.0009591350     1     2     8     1
 0.0004179910     1     2     8     3
 -0.0145414669     1     2     8     5
 0.0500908135     1     2     8     7
 -0.0312656028     1     2     8     9
 -0.0119189643     1     2     9     4
 0.0050956229     1     2     9     6
 -0.0314439158     1     2     9     8
 0.0492819697     1     3     2     2
 0.0322027732     1     3     2     4
 -0.0054440215     1     3     2     6
 -0.0033312274     1     3     2     8
 -0.1752574246     1     3     3     1
 0.0318081603     1     3     3     5
 0.0043855375     1     3     3     7
 0.0099285913     1     3     3     9
 -0.0125904346     1     3     4     2
 0.0107131853     1     3     4     4
 -0.0355546152     1     3     4     6
 -0.0097357516     1     3     4     8
 -0.0331177437     1     3     5     1
 0.0017573435     1     3     5     5
 -0.0000721979     1     3     5     7
 0.0067579464     1     3     5     9
 0.0163618381     1     3     6     2
 -0.0149708745     1     3     6     4
 0.0215967434     1     3     6     6
 0.0124664930     1     3     6     8
 0.0009025911     1     3     7     1
 -0.0016159610     1     3     7     5
 0.0162666413     1     3     7     7
 0.0291705836     1     3     7     9
 -0.0004179910     1     3     8     2
 -0.0081033065     1     3     8     4
 0.0122154241     1     3     8     6
 -0.0069651882     1     3     8     8
 0.0022191582     1     3     9     1
 -0.0001875536     1     3     9     5
 0.0287729214     1     3     9     7
 0.0037978516     1     3     9     9
 -0.0153491370     1     4     2     1
 -0.0322027732     1     4     2     3
 -0.0155740673     1     4     2     5
 0.0017215274     1     4     2     7
 0.0001111803     1     4     2     9
 -0.0446410805     1     4     3     2
 -0.0231941127     1     4     3     6
 -0.0020190110     1     4     3     8
 -0.1902757442     1     4     4     1
 -0.0107131853     1     4     4     3
 -0.0015334681     1     4     4     5
 0.0142676370     1     4     4     7
 -0.0004550567     1     4     4     9
 0.0354117369     1     4     5     2
 -0.0110836893     1     4     5     6
 -0.0124011176     1     4     5     8
 0.0388174079     1     4     6     1
 0.0149708745     1     4     6     3
 -0.0098620550     1     4     6     5
 -0.0021016814     1     4     6     7
 -0.0091744161     1     4     6     9
 -0.0048347589     1     4     7     2
 0.0009861317     1     4     7     6
 0.0095684294     1     4     7     8
 0.0029591681     1     4     8     1
 0.0081033065     1     4     8     3
 -0.0025213629     1     4     8     5
 0.0086022028     1     4     8     7
 0.0059958625     1     4     8     9
 0.0119189643     1     4     9     2
 -0.0015175563     1     4     9     6
 0.0056371437     1     4     9     8
 0.0015590720     1     5     2     2
 0.0155740673     1     5     2     4
 -0.0122689951     1     5     2     6
 -0.0029482966     1     5     2     8
 -0.0331177437     1     5     3     1
 -0.0318081603     1     5     3     3
 0.0014068540     1     5     3     7
 0.0072889565     1     5     3     9
 0.0501106138     1     5     4     2
 0.0015334681     1     5     4     4
 -0.0011271923     1     5     4     6
 -0.0100232288     1     5     4     8
 -0.1877140002     1     5     5     1
 -0.0017573435     1     5     5     3
 0.0140719475     1     5     5     7
 -0.0015862008     1     5     5     9
 0.0454383507     1     5     6     2
 0.0098620550     1     5     6     4
 -0.0058439887     1     5     6     6
 -0.0087801434     1     5     6     8
 0.0107364618     1     5     7     1
 0.0016159610     1     5     7     3
 -0.0054672858     1     5     7     7
 -0.0027025079     1     5     7     9
 0.0145414669     1     5     8     2
 0.0025213629     1     5     8     4
 -0.0008246525     1     5     8     6
 -0.0052721368     1     5     8     8
 -0.0208353151     1     5     9     1
 0.0001875536     1     5     9     3
 0.0009220656     1     5     9     7
 0.0010503285     1     5     9     9
 -0.0102803361     1     6     2     1
 0.0054440215     1     6     2     3
 0.0122689951     1     6     2     5
 -0.0006050145     1     6     2     7
 0.0041611075     1     6     2     9
 0.0217946578     1     6     3     2
 0.0231941127     1     6     3     4
 0.0004021703     1     6     3     8
 0.0388174079     1     6     4     1
 0.0355546152     1     6     4     3
 0.0011271923     1     6     4     5
 -0.0029498548     1     6     4     7
 -0.0078483866     1     6     4     9
 0.0559920598     1     6     5     2
 0.0110836893     1     6     5     4
 -0.0080980618     1     6     5     8
 -0.2151499324     1     6     6     1
 -0.0215967434     1     6     6     3
 0.0058439887     1     6     6     5
 0.0155406502     1     6     6     7
 0.0055455928     1     6     6     9
 0.0058600487     1     6     7     2
 -0.0009861317     1     6     7     4
 -0.0022156890     1     6     7     8
 -0.0313386239     1     6     8     1
 -0.0122154241     1     6     8     3
 0.0008246525     1     6     8     5
 0.0023863900     1     6     8     7
 0.0012217690     1     6     8     9
 -0.0050956229     1     6     9     2
 0.0015175563     1     6     9     4
 -0.0011071727     1     6     9     8
 -0.0039250504     1     7     2     2
 -0.0017215274     1     7     2     4
 0.0006050145     1     7     2     6
 0.0008332101     1     7     2     8
 0.0009025911     1     7     3     1
 -0.0043855375     1     7     3     3
 -0.0014068540     1     7     3     5
 0.0004020188     1     7     3     9
 -0.0067076568     1     7     4     2
 -0.0142676370     1     7     4     4
 0.0029498548     1     7     4     6
 0.0009425368     1     7     4     8
 0.0107364618     1     7     5     1
 0.0000721979     1     7     5     3
 -0.0140719475     1     7     5     5
 -0.0035906237     1     7     5     9
 0.0062599792     1     7     6     2
 0.0021016814     1     7     6     4
 -0.0155406502     1     7     6     6
 -0.0045877755     1     7     6     8
 -0.1877577538     1     7     7     1
 -0.0162666413     1     7     7     3
 0.0054672858     1     7     7     5
 0.0020389573     1     7     7     9
 -0.0500908135     1     7     8     2
 -0.0086022028     1     7     8     4
 -0.0023863900     1     7     8     6
 -0.0029385967     1     7     8     8
 -0.0343188455     1     7     9     1
 -0.0287729214     1     7     9     3
 -0.0009220656     1     7     9     5
 -0.0036700893     1     7     9     9
 0.0009591350     1     8     2     1
 0.0033312274     1     8     2     3
 0.0029482966     1     8     2     5
 -0.0008332101     1     8     2     7
 0.0003483989     1     8     2     9
 0.0030562139     1     8     3     2
 0.0020190110     1     8     3     4
 -0.0004021703     1     8     3     6
 0.0029591681     1     8     4     1
 0.0097357516     1     8     4     3
 0.0100232288     1     8     4     5
 -0.0009425368     1     8     4     7
 0.0002779934     1     8     4     9
 0.0168359196     1     8     5     2
 0.0124011176     1     8     5     4
 0.0080980618     1     8     5     6
 -0.0313386239     1     8     6     1
 -0.0124664930     1     8     6     3
 0.0087801434     1     8     6     5
 0.0045877755     1     8     6     7
 0.0023199536     1     8     6     9
 -0.0508151941     1     8     7     2
 -0.0095684294     1     8     7     4
 0.0022156890     1     8     7     6
 -0.1651285203     1     8     8     1
 0.0069651882     1     8     8     3
 0.0052721368     1     8     8     5
 0.0029385967     1     8     8     7
 0.0037042917     1     8     8     9
 0.0314439158     1     8     9     2
 -0.0056371437     1     8     9     4
 0.0011071727     1     8     9     6
 -0.0048961178     1     9     2     2
 -0.0001111803     1     9     2     4
 -0.0041611075     1     9     2     6
 -0.0003483989     1     9     2     8
 0.0022191582     1     9     3     1
 -0.0099285913     1     9     3     3
 -0.0072889565     1     9     3     5
 -0.0004020188     1     9     3     7
 0.0115406446     1     9     4     2
 0.0004550567     1     9     4     4
 0.0078483866     1     9     4     6
 -0.0002779934     1     9     4     8
 -0.0208353151     1     9     5     1
 -0.0067579464     1     9     5     3
 0.0015862008     1     9     5     5
 0.0035906237     1     9     5     7
 -0.0085451448     1     9     6     2
 0.0091744161     1     9     6     4
 -0.0055455928     1     9     6     6
 -0.0023199536     1     9     6     8
 -0.0343188455     1     9     7     1
 -0.0291705836     1     9     7     3
 0.0027025079     1     9     7     5
 -0.0020389573     1     9     7     7
 0.0312656028     1     9     8     2
 -0.0059958625     1     9     8     4
 -0.0012217690     1     9     8     6
 -0.0037042917     1     9     8     8
 -0.1693466497     1     9     9     1
 -0.0037978516     1     9     9     3
 -0.0010503285     1     9     9     5
 0.0036700893     1     9     9     7
 -0.1368835857     2     1     1     2
 -0.0153491370     2     1     1     4
 -0.0102803361     2     1     1     6
 0.0009591350     2     1     1     8
 -0.0492819697     2     1     3     2
 0.0125904346     2     1     3     4
 -0.0163618381     2     1     3     6
 0.0004179910     2     1     3     8
 0.0446410805     2     1     4     3
 -0.0354117369     2     1     4     5
 0.0048347589     2     1     4     7
 -0.0119189643     2     1     4     9
 -0.0015590720     2     1     5     2
 -0.0501106138     2     1     5     4
 -0.0454383507     2     1     5     6
 -0.0145414669     2     1     5     8
 -0.0217946578     2     1     6     3
 -0.0559920598     2     1     6     5
 -0.0058600487     2     1     6     7
 0.0050956229     2     1     6     9
 0.0039250504     2     1     7     2
 0.0067076568     2     1     7     4
 -0.0062599792     2     1     7     6
 0.0500908135     2     1     7     8
 -0.0030562139     2     1     8     3
 -0.0168359196     2     1     8     5
 0.0508151941     2     1     8     7
 -0.0314439158     2     1     8     9
 0.0048961178     2     1     9     2
 -0.0115406446     2     1     9     4
 0.0085451448     2     1     9     6
 -0.0312656028     2     1     9     8
 0.1368835857     2     2     1     1
 0.0492819697     2     2     1     3
 0.0015590720     2     2     1     5
 -0.0039250504     2     2     1     7
 -0.0048961178     2     2     1     9
 0.0492819697     2     2     3     1
 0.1423337051     2     2     3     3
 0.0081251691     2     2     3     5
 -0.0024820028     2     2     3     7
 -0.0073778053     2     2     3     9
 0.1729315710     2     2     4     4
 -0.0083682013     2     2     4     6
 0.0065663504     2     2     4     8
 0.0015590720     2     2     5     1
 0.0081251691     2     2     5     3
 0.1814950889     2     2     5     5
 -0.0080442654     2     2     5     7
 0.0173388657     2     2     5     9
 -0.0083682013     2     2     6     4
 0.1867352050     2     2     6     6
 0.0168554214     2     2     6     8
 -0.0039250504     2     2     7     1
 -0.0024820028     2     2     7     3
 -0.0080442654     2     2     7     5
 0.1704516264     2     2     7     7
 0.0036505414     2     2     7     9
 0.0065663504     2     2     8     4
 0.0168554214     2     2     8     6
 0.1721837172     2     2     8     8
 -0.0048961178     2     2     9     1
 -0.0073778053     2     2     9     3
 0.0173388657     2     2     9     5
 0.0036505414     2     2     9     7
 0.1657856093     2     2     9     9
 -0.0492819697     2     3     1     2
 -0.0322027732     2     3     1     4
 0.0054440215     2     3     1     6
 0.0033312274     2     3     1     8
 -0.1423337051     2     3     3     2
 -0.0566275521     2     3     3     4
 0.0036301162     2     3     3     6
 0.0029041037     2     3     3     8
 -0.0446410805     2     3     4     1
 0.0553426564     2     3     4     5
 0.0003511043     2     3     4     7
 0.0118848200     2     3     4     9
 -0.0081251691     2     3     5     2
 0.0294832157     2     3     5     4
 0.0498733136     2     3     5     6
 0.0111649294     2     3     5     8
 0.0217946578     2     3     6     1
 0.0322820374     2     3     6     5
 0.0068935689     2     3     6     7
 -0.0141093200     2     3     6     9
 0.0024820028     2     3     7     2
 0.0007907909     2     3     7     4
 0.0062524546     2     3     7     6
 -0.0484204360     2     3     7     8
 0.0030562139     2     3     8     1
 0.0084236615     2     3     8     5
 -0.0475619926     2     3     8     7
 0.0378379267     2     3     8     9
 0.0073778053     2     3     9     2
 0.0116872468     2     3     9     4
 -0.0074396892     2     3     9     6
 0.0383410418     2     3     9     8
 0.0153491370     2     4     1     1
 0.0322027732     2     4     1     3
 0.0155740673     2     4     1     5
 -0.0017215274     2     4     1     7
 -0.0001111803     2     4     1     9
 -0.0125904346     2     4     3     1
 0.0566275521     2     4     3     3
 0.0282928040     2     4     3     5
 -0.0003505594     2     4     3     7
 0.0011492418     2     4     3     9
 -0.1729315710     2     4     4     2
 -0.0374167420     2     4     4     6
 0.0027238307     2     4     4     8
 0.0501106138     2     4     5     1
 -0.0294832157     2     4     5     3
 0.0036568300     2     4     5     5
 -0.0124878877     2     4     5     7
 0.0102399887     2     4     5     9
 0.0083682013     2     4     6     2
 0.0204675294     2     4     6     6
 0.0161914869     2     4     6     8
 -0.0067076568     2     4     7     1
 -0.0007907909     2     4     7     3
 -0.0038842374     2     4     7     5
 0.0180419728     2     4     7     7
 0.0240854380     2     4     7     9
 -0.0065663504     2     4     8     2
 0.0094267865     2     4     8     6
 -0.0002199827     2     4     8     8
 0.0115406446     2     4     9     1
 -0.0116872468     2     4     9     3
 -0.0016698094     2     4     9     5
 0.0213952655     2     4     9     7
 0.0028862023     2     4     9     9
 -0.0015590720     2     5     1     2
 -0.0155740673     2     5     1     4
 0.0122689951     2     5     1     6
 0.0029482966     2     5     1     8
 -0.0081251691     2     5     3     2
 -0.0282928040     2     5     3     4
 0.0181962064     2     5     3     6
 0.0026405078     2     5     3     8
 0.0354117369     2     5     4     1
 -0.0553426564     2     5     4     3
 -0.0085057422     2     5     4     7
 0.0122291283     2     5     4     9
 -0.1814950889     2     5     5     2
 -0.0036568300     2     5     5     4
 -0.0072858380     2     5     5     6
 0.0183419066     2     5     5     8
 0.0559920598     2     5     6     1
 -0.0322820374     2     5     6     3
 -0.0118528931     2     5     6     7
 0.0086785629     2     5     6     9
 0.0080442654     2     5     7     2
 0.0038842374     2     5     7     4
 -0.0029488653     2     5     7     6
 -0.0036151649     2     5     7     8
 0.0168359196     2     5     8     1
 -0.0084236615     2     5     8     3
 -0.0059138968     2     5     8     7
 -0.0099776880     2     5     8     9
 -0.0173388657     2     5     9     2
 0.0016698094     2     5     9     4
 -0.0009887481     2     5     9     6
 -0.0087320685     2     5     9     8
 0.0102803361     2     6     1     1
 -0.0054440215     2     6     1     3
 -0.0122689951     2     6     1     5
 0.0006050145     2     6     1     7
 -0.0041611075     2     6     1     9
 0.0163618381     2     6     3     1
 -0.0036301162     2     6     3     3
 -0.0181962064     2     6     3     5
 0.0006067042     2     6     3     7
 -0.0070477637     2     6     3     9
 0.0083682013     2     6     4     2
 0.0374167420     2     6     4     4
 0.0067912567     2     6     4     8
 0.0454383507     2     6     5     1
 -0.0498733136     2     6     5     3
 0.0072858380     2     6     5     5
 -0.0088362214     2     6     5     7
 0.0097453684     2     6     5     9
 -0.1867352050     2     6     6     2
 -0.0204675294     2     6     6     4
 0.0126024569     2     6     6     8
 0.0062599792     2     6     7     1
 -0.0062524546     2     6     7     3
 0.0029488653     2     6     7     5
 0.0045792362     2     6     7     7
 0.0013514910     2     6     7     9
 -0.0168554214     2     6     8     2
 -0.0094267865     2     6     8     4
 0.0073714591     2     6     8     8
 -0.0085451448     2     6     9     1
 0.0074396892     2     6     9     3
 0.0009887481     2     6     9     5
 0.0001424992     2     6     9     7
 0.0020600032     2     6     9     9
 0.0039250504     2     7     1     2
 0.0017215274     2     7     1     4
 -0.0006050145     2     7     1     6
 -0.0008332101     2     7     1     8
 0.0024820028     2     7     3     2
 0.0003505594     2     7     3     4
 -0.0006067042     2     7     3     6
 -0.0008275853     2     7     3     8
 -0.0048347589     2     7     4     1
 -0.0003511043     2     7     4     3
 0.0085057422     2     7     4     5
 0.0026493794     2     7     4     9
 0.0080442654     2     7     5     2
 0.0124878877     2     7     5     4
 0.0088362214     2     7     5     6
 0.0022935175     2     7     5     8
 0.0058600487     2     7     6     1
 -0.0068935689     2     7     6     3
 0.0118528931     2     7     6     5
 0.0011814015     2     7     6     9
 -0.1704516264     2     7     7     2
 -0.0180419728     2     7     7     4
 -0.0045792362     2     7     7     6
 0.0001063466     2     7     7     8
 -0.0508151941     2     7     8     1
 0.0475619926     2     7     8     3
 0.0059138968     2     7     8     5
 0.0022697580     2     7     8     9
 -0.0036505414     2     7     9     2
 -0.0213952655     2     7     9     4
 -0.0001424992     2     7     9     6
 0.0016432924     2     7     9     8
 -0.0009591350     2     8     1     1
 -0.0033312274     2     8     1     3
 -0.0029482966     2     8     1     5
 0.0008332101     2     8     1     7
 -0.0003483989     2     8     1     9
 -0.0004179910     2     8     3     1
 -0.0029041037     2     8     3     3
 -0.0026405078     2     8     3     5
 0.0008275853     2     8     3     7
 -0.0004457715     2     8     3     9
 -0.0065663504     2     8     4     2
 -0.0027238307     2     8     4     4
 -0.0067912567     2     8     4     6
 0.0145414669     2     8     5     1
 -0.0111649294     2     8     5     3
 -0.0183419066     2     8     5     5
 -0.0022935175     2     8     5     7
 -0.0012363673     2     8     5     9
 -0.0168554214     2     8     6     2
 -0.0161914869     2     8     6     4
 -0.0126024569     2     8     6     6
 -0.0500908135     2     8     7     1
 0.0484204360     2     8     7     3
 0.0036151649     2     8     7     5
 -0.0001063466     2     8     7     7
 0.0006366999     2     8     7     9
 -0.1721837172     2     8     8     2
 0.0002199827     2     8     8     4
 -0.0073714591     2     8     8     6
 0.0312656028     2     8     9     1
 -0.0383410418     2     8     9     3
 0.0087320685     2     8     9     5
 -0.0016432924     2     8     9     7
 -0.0021139820     2     8     9     9
 0.0048961178     2     9     1     2
 0.0001111803     2     9     1     4
 0.0041611075     2     9     1     6
 0.0003483989     2     9     1     8
 0.0073778053     2     9     3     2
 -0.0011492418     2     9     3     4
 0.0070477637     2     9     3     6
 0.0004457715     2     9     3     8
 0.0119189643     2     9     4     1
 -0.0118848200     2     9     4     3
 -0.0122291283     2     9     4     5
 -0.0026493794     2     9     4     7
 -0.0173388657     2     9     5     2
 -0.0102399887     2     9     5     4
 -0.0097453684     2     9     5     6
 0.0012363673     2     9     5     8
 -0.0050956229     2     9     6     1
 0.0141093200     2     9     6     3
 -0.0086785629     2     9     6     5
 -0.0011814015     2     9     6     7
 -0.0036505414     2     9     7     2
 -0.0240854380     2     9     7     4
 -0.0013514910     2     9     7     6
 -0.0006366999     2     9     7     8
 0.0314439158     2     9     8     1
 -0.0378379267     2     9     8     3
 0.0099776880     2     9     8     5
 -0.0022697580     2     9     8     7
 -0.1657856093     2     9     9     2
 -0.0028862023     2     9     9     4
 -0.0020600032     2     9     9     6
 0.0021139820     2     9     9     8
 -0.1752574246     3     1     1     3
 -0.0331177437     3     1     1     5
 0.0009025911     3     1     1     7
 0.0022191582     3     1     1     9
 0.0492819697     3     1     2     2
 -0.0125904346     3     1     2     4
 0.0163618381     3     1     2     6
 -0.0004179910     3     1     2     8
 0.0322027732     3     1     4     2
 0.0107131853     3     1     4     4
 -0.0149708745     3     1     4     6
 -0.0081033065     3     1     4     8
 0.0318081603     3     1     5     3
 0.0017573435     3     1     5     5
 -0.0016159610     3     1     5     7
 -0.0001875536     3     1     5     9
 -0.0054440215     3     1     6     2
 -0.0355546152     3     1     6     4
 0.0215967434     3     1     6     6
 0.0122154241     3     1     6     8
 0.0043855375     3     1     7     3
 -0.0000721979     3     1     7     5
 0.0162666413     3     1     7     7
 0.0287729214     3     1     7     9
 -0.0033312274     3     1     8     2
 -0.0097357516     3     1     8     4
 0.0124664930     3     1     8     6
 -0.0069651882     3     1     8     8
 0.0099285913     3     1     9     3
 0.0067579464     3     1     9     5
 0.0291705836     3     1     9     7
 0.0037978516     3     1     9     9
 -0.0446410805     3     2     1     4
 0.0217946578     3     2     1     6
 0.0030562139     3     2     1     8
 -0.0492819697     3     2     2     1
 -0.1423337051     3     2     2     3
 -0.0081251691     3     2     2     5
 0.0024820028     3     2     2     7
 0.0073778053     3     2     2     9
 -0.0322027732     3     2     4     1
 -0.0566275521     3     2     4     3
 0.0294832157     3     2     4     5
 0.0007907909     3     2     4     7
 0.0116872468     3     2     4     9
 0.0553426564     3     2     5     4
 0.0322820374     3     2     5     6
 0.0084236615     3     2     5     8
 0.0054440215     3     2     6     1
 0.0036301162     3     2     6     3
 0.0498733136     3     2     6     5
 0.0062524546     3     2     6     7
 -0.0074396892     3     2     6     9
 0.0003511043     3     2     7     4
 0.0068935689     3     2     7     6
 -0.0475619926     3     2     7     8
 0.0033312274     3     2     8     1
 0.0029041037     3     2     8     3
 0.0111649294     3     2     8     5
 -0.0484204360     3     2     8     7
 0.0383410418     3     2     8     9
 0.0118848200     3     2     9     4
 -0.0141093200     3     2     9     6
 0.0378379267     3     2     9     8
 0.1752574246     3     3     1     1
 -0.0318081603     3     3     1     5
 -0.0043855375     3     3     1     7
 -0.0099285913     3     3     1     9
 0.1423337051     3     3     2     2
 0.0566275521     3     3     2     4
 -0.0036301162     3     3     2     6
 -0.0029041037     3     3     2     8
 0.0566275521     3     3     4     2
 0.1766249482     3     3     4     4
 -0.0169782608     3     3     4     6
 -0.0033076555     3     3     4     8
 -0.0318081603     3     3     5     1
 0.1714346418     3     3     5     5
 -0.0027809392     3     3     5     7
 0.0176834680     3     3     5     9
 -0.0036301162     3     3     6     2
 -0.0169782608     3     3     6     4
 0.1860106952     3     3     6     6
 0.0193419040     3     3     6     8
 -0.0043855375     3     3     7     1
 -0.0027809392     3     3     7     5
 0.1756532298     3     3     7     7
 0.0176436352     3     3     7     9
 -0.0029041037     3     3     8     2
 -0.0033076555     3     3     8     4
 0.0193419040     3     3     8     6
 0.1661900795     3     3     8     8
 -0.0099285913     3     3     9     1
 0.0176834680     3     3     9     5
 0.0176436352     3     3     9     7
 0.1682998313     3     3     9     9
 0.0446410805     3     4     1     2
 0.0231941127     3     4     1     6
 0.0020190110     3     4     1     8
 0.0125904346     3     4     2     1
 -0.0566275521     3     4     2     3
 -0.0282928040     3     4     2     5
 0.0003505594     3     4     2     7
 -0.0011492418     3     4     2     9
 -0.0107131853     3     4     4     1
 -0.1766249482     3     4     4     3
 -0.0621411812     3     4     4     5
 0.0024132003     3     4     4     7
 0.0022344189     3     4     4     9
 -0.0553426564     3     4     5     2
 -0.0506820612     3     4     5     6
 -0.0005275694     3     4     5     8
 0.0355546152     3     4     6     1
 0.0169782608     3     4     6     3
 -0.0083455896     3     4     6     5
 -0.0163710171     3     4     6     7
 0.0121539894     3     4     6     9
 -0.0003511043     3     4     7     2
 -0.0073834284     3     4     7     6
 0.0335710441     3     4     7     8
 0.0097357516     3     4     8     1
 0.0033076555     3     4     8     3
 0.0006905756     3     4     8     5
 0.0303876800     3     4     8     7
 -0.0255962657     3     4     8     9
 -0.0118848200     3     4     9     2
 -0.0007861104     3     4     9     6
 -0.0265744285     3     4     9     8
 0.0331177437     3     5     1     1
 0.0318081603     3     5     1     3
 -0.0014068540     3     5     1     7
 -0.0072889565     3     5     1     9
 0.0081251691     3     5     2     2
 0.0282928040     3     5     2     4
 -0.0181962064     3     5     2     6
 -0.0026405078     3     5     2     8
 -0.0294832157     3     5     4     2
 0.0621411812     3     5     4     4
 -0.0423795492     3     5     4     6
 -0.0013964242     3     5     4     8
 -0.0017573435     3     5     5     1
 -0.1714346418     3     5     5     3
 -0.0090057130     3     5     5     7
 0.0198559900     3     5     5     9
 -0.0498733136     3     5     6     2
 0.0083455896     3     5     6     4
 0.0118144946     3     5     6     6
 0.0203729353     3     5     6     8
 0.0000721979     3     5     7     1
 0.0027809392     3     5     7     3
 0.0182217784     3     5     7     7
 0.0243064189     3     5     7     9
 -0.0111649294     3     5     8     2
 -0.0006905756     3     5     8     4
 0.0077964412     3     5     8     6
 0.0016782343     3     5     8     8
 -0.0067579464     3     5     9     1
 -0.0176834680     3     5     9     3
 0.0231743930     3     5     9     7
 0.0070341388     3     5     9     9
 -0.0217946578     3     6     1     2
 -0.0231941127     3     6     1     4
 -0.0004021703     3     6     1     8
 -0.0163618381     3     6     2     1
 0.0036301162     3     6     2     3
 0.0181962064     3     6     2     5
 -0.0006067042     3     6     2     7
 0.0070477637     3     6     2     9
 0.0149708745     3     6     4     1
 0.0169782608     3     6     4     3
 0.0423795492     3     6     4     5
 -0.0089373764     3     6     4     7
 0.0129458385     3     6     4     9
 -0.0322820374     3     6     5     2
 0.0506820612     3     6     5     4
 0.0125537579     3     6     5     8
 -0.0215967434     3     6     6     1
 -0.1860106952     3     6     6     3
 -0.0118144946     3     6     6     5
 0.0003652547     3     6     6     7
 0.0126114623     3     6     6     9
 -0.0068935689     3     6     7     2
 0.0073834284     3     6     7     4
 -0.0101341517     3     6     7     8
 -0.0124664930     3     6     8     1
 -0.0193419040     3     6     8     3
 -0.0077964412     3     6     8     5
 -0.0092162072     3     6     8     7
 -0.0031694901     3     6     8     9
 0.0141093200     3     6     9     2
 0.0007861104     3     6     9     4
 -0.0048055379     3     6     9     8
 -0.0009025911     3     7     1     1