&FCI NORB=  9,NELEC= 10,MS2=0,
 ORBSYM=1,1,1,1,1,1,1,1,1
 ISYM=1,
&END
 0.9820251104     1     1     2     2
 0.0708178592     1     1     2     4
 -0.1549806179     1     1     2     6
 0.1296274801     1     1     2     9
 0.8591464402     1     1     3     3
 -0.1906117101     1     1     3     7
 0.1284023305     1     1     3     8
 0.0708178592     1     1     4     2
 0.9527923560     1     1     4     4
 0.0875939420     1     1     4     6
 -0.1339428236     1     1     4     9
 1.0041777503     1     1     5     5
 -0.1549806179     1     1     6     2
 0.0875939420     1     1     6     4
 0.3995715065     1     1     6     6
 -0.1606637686     1     1     6     9
 -0.1906117101     1     1     7     3
 0.3928758887     1     1     7     7
 -0.1544639026     1     1     7     8
 0.1284023305     1     1     8     3
 -0.1544639026     1     1     8     7
 0.5542745777     1     1     8     8
 0.1296274801     1     1     9     2
 -0.1339428236     1     1     9     4
 -0.1606637686     1     1     9     6
 0.5747743465     1     1     9     9
 -0.9820251104     1     2     2     1
 -0.0068853457     1     2     2     4
 -0.0017779698     1     2     2     6
 0.0040023421     1     2     2     9
 0.0300766017     1     2     3     3
 -0.0150370146     1     2     3     7
 0.0155196089     1     2     3     8
 -0.0708178592     1     2     4     1
 0.0355299955     1     2     4     4
 0.0088568885     1     2     4     6
 -0.0158914137     1     2     4     9
 0.0407939896     1     2     5     5
 0.1549806179     1     2     6     1
 0.0082950838     1     2     6     4
 0.0027845550     1     2     6     6
 -0.0050716695     1     2     6     9
 -0.0109634579     1     2     7     3
 0.0072459904     1     2     7     7
 -0.0073364178     1     2     7     8
 0.0101867661     1     2     8     3
 -0.0063889782     1     2     8     7
 0.0061169877     1     2     8     8
 -0.1296274801     1     2     9     1
 -0.0126002146     1     2     9     4
 -0.0040582300     1     2     9     6
 0.0068360024     1     2     9     9
 -0.0032196686     1     3     2     7
 0.0046993573     1     3     2     8
 -0.8591464402     1     3     3     1
 -0.0300766017     1     3     3     2
 -0.0104522054     1     3     3     4
 0.0047485206     1     3     3     6
 0.0007670085     1     3     3     9
 0.0017914669     1     3     4     7
 -0.0059894040     1     3     4     8
 -0.0025266320     1     3     6     7
 -0.0003532125     1     3     6     8
 0.1906117101     1     3     7     1
 0.0109634579     1     3     7     2
 0.0041114379     1     3     7     4
 -0.0057542267     1     3     7     6
 0.0029795576     1     3     7     9
 -0.1284023305     1     3     8     1
 -0.0101867661     1     3     8     2
 -0.0033904605     1     3     8     4
 0.0045211584     1     3     8     6
 -0.0085279085     1     3     8     9
 0.0022093459     1     3     9     7
 -0.0048300789     1     3     9     8
 -0.0708178592     1     4     2     1
 0.0068853457     1     4     2     2
 -0.0000046070     1     4     2     6
 -0.0025371768     1     4     2     9
 0.0104522054     1     4     3     3
 -0.0025074374     1     4     3     7
 -0.0024743204     1     4     3     8
 -0.9527923560     1     4     4     1
 -0.0355299955     1     4     4     2
 0.0107858677     1     4     4     6
 -0.0127454930     1     4     4     9
 0.0138421579     1     4     5     5
 -0.0875939420     1     4     6     1
 -0.0082950838     1     4     6     2
 0.0054635455     1     4     6     6
 -0.0050564444     1     4     6     9
 -0.0041114379     1     4     7     3
 0.0038413139     1     4     7     7
 -0.0016234425     1     4     7     8
 0.0033904605     1     4     8     3
 -0.0040179341     1     4     8     7
 0.0060874745     1     4     8     8
 0.1339428236     1     4     9     1
 0.0126002146     1     4     9     2
 -0.0067755718     1     4     9     6
 0.0108440714     1     4     9     9
 -1.0041777503     1     5     5     1
 -0.0407939896     1     5     5     2
 -0.0138421579     1     5     5     4
 0.0101699010     1     5     5     6
 -0.0122650604     1     5     5     9
 0.1549806179     1     6     2     1
 0.0017779698     1     6     2     2
 0.0000046070     1     6     2     4
 -0.0010162125     1     6     2     9
 -0.0047485206     1     6     3     3
 0.0030275190     1     6     3     7
 -0.0047388241     1     6     3     8
 -0.0875939420     1     6     4     1
 -0.0088568885     1     6     4     2
 -0.0107858677     1     6     4     4
 0.0017863285     1     6     4     9
 -0.0101699010     1     6     5     5
 -0.3995715065     1     6     6     1
 -0.0027845550     1     6     6     2
 -0.0054635455     1     6     6     4
 0.0013451354     1     6     6     9
 0.0057542267     1     6     7     3
 -0.0028673751     1     6     7     7
 0.0033853250     1     6     7     8
 -0.0045211584     1     6     8     3
 0.0019711224     1     6     8     7
 -0.0011412815     1     6     8     8
 0.1606637686     1     6     9     1
 0.0040582300     1     6     9     2
 0.0067755718     1     6     9     4
 -0.0002216774     1     6     9     9
 0.0032196686     1     7     2     3
 -0.0009028751     1     7     2     8
 0.1906117101     1     7     3     1
 0.0150370146     1     7     3     2
 0.0025074374     1     7     3     4
 -0.0030275190     1     7     3     6
 0.0005883989     1     7     3     9
 -0.0017914669     1     7     4     3
 0.0023871349     1     7     4     8
 0.0025266320     1     7     6     3
 0.0014160722     1     7     6     8
 -0.3928758887     1     7     7     1
 -0.0072459904     1     7     7     2
 -0.0038413139     1     7     7     4
 0.0028673751     1     7     7     6
 -0.0011742848     1     7     7     9
 0.1544639026     1     7     8     1
 0.0063889782     1     7     8     2
 0.0040179341     1     7     8     4
 -0.0019711224     1     7     8     6
 0.0036341122     1     7     8     9
 -0.0022093459     1     7     9     3
 0.0014368899     1     7     9     8
 -0.0046993573     1     8     2     3
 0.0009028751     1     8     2     7
 -0.1284023305     1     8     3     1
 -0.0155196089     1     8     3     2
 0.0024743204     1     8     3     4
 0.0047388241     1     8     3     6
 -0.0035373426     1     8     3     9
 0.0059894040     1     8     4     3
 -0.0023871349     1     8     4     7
 0.0003532125     1     8     6     3
 -0.0014160722     1     8     6     7
 0.1544639026     1     8     7     1
 0.0073364178     1     8     7     2
 0.0016234425     1     8     7     4
 -0.0033853250     1     8     7     6
 0.0021962895     1     8     7     9
 -0.5542745777     1     8     8     1
 -0.0061169877     1     8     8     2
 -0.0060874745     1     8     8     4
 0.0011412815     1     8     8     6
 -0.0022934274     1     8     8     9
 0.0048300789     1     8     9     3
 -0.0014368899     1     8     9     7
 -0.1296274801     1     9     2     1
 -0.0040023421     1     9     2     2
 0.0025371768     1     9     2     4
 0.0010162125     1     9     2     6
 -0.0007670085     1     9     3     3
 -0.0005883989     1     9     3     7
 0.0035373426     1     9     3     8
 0.1339428236     1     9     4     1
 0.0158914137     1     9     4     2
 0.0127454930     1     9     4     4
 -0.0017863285     1     9     4     6
 0.0122650604     1     9     5     5
 0.1606637686     1     9     6     1
 0.0050716695     1     9     6     2
 0.0050564444     1     9     6     4
 -0.0013451354     1     9     6     6
 -0.0029795576     1     9     7     3
 0.0011742848     1     9     7     7
 -0.0021962895     1     9     7     8
 0.0085279085     1     9     8     3
 -0.0036341122     1     9     8     7
 0.0022934274     1     9     8     8
 -0.5747743465     1     9     9     1
 -0.0068360024     1     9     9     2
 -0.0108440714     1     9     9     4
 0.0002216774     1     9     9     6
 -0.9820251104     2     1     1     2
 -0.0708178592     2     1     1     4
 0.1549806179     2     1     1     6
 -0.1296274801     2     1     1     9
 0.0300766017     2     1     3     3
 -0.0109634579     2     1     3     7
 0.0101867661     2     1     3     8
 -0.0068853457     2     1     4     2
 0.0355299955     2     1     4     4
 0.0082950838     2     1     4     6
 -0.0126002146     2     1     4     9
 0.0407939896     2     1     5     5
 -0.0017779698     2     1     6     2
 0.0088568885     2     1     6     4
 0.0027845550     2     1     6     6
 -0.0040582300     2     1     6     9
 -0.0150370146     2     1     7     3
 0.0072459904     2     1     7     7
 -0.0063889782     2     1     7     8
 0.0155196089     2     1     8     3
 -0.0073364178     2     1     8     7
 0.0061169877     2     1     8     8
 0.0040023421     2     1     9     2
 -0.0158914137     2     1     9     4
 -0.0050716695     2     1     9     6
 0.0068360024     2     1     9     9
 0.9820251104     2     2     1     1
 0.0068853457     2     2     1     4
 0.0017779698     2     2     1     6
 -0.0040023421     2     2     1     9
 0.5253393310     2     2     3     3
 -0.0737007253     2     2     3     7
 0.0242853764     2     2     3     8
 0.0068853457     2     2     4     1
 0.5529715312     2     2     4     4
 0.0363475664     2     2     4     6
 -0.0429389591     2     2     4     9
 0.5831010109     2     2     5     5
 0.0017779698     2     2     6     1
 0.0363475664     2     2     6     4
 0.3344132549     2     2     6     6
 -0.0809888753     2     2     6     9
 -0.0737007253     2     2     7     3
 0.3279083859     2     2     7     7
 -0.0854941388     2     2     7     8
 0.0242853764     2     2     8     3
 -0.0854941388     2     2     8     7
 0.4727631669     2     2     8     8
 -0.0040023421     2     2     9     1
 -0.0429389591     2     2     9     4
 -0.0809888753     2     2     9     6
 0.4719298487     2     2     9     9
 0.0032196686     2     3     1     7
 -0.0046993573     2     3     1     8
 -0.0300766017     2     3     3     1
 -0.5253393310     2     3     3     2
 -0.0026582475     2     3     3     4
 0.0706977168     2     3     3     6
 -0.0748322882     2     3     3     9
 -0.0149952504     2     3     4     7
 0.0389602311     2     3     4     8
 0.0402562077     2     3     6     7
 0.0000147878     2     3     6     8
 0.0150370146     2     3     7     1
 0.0737007253     2     3     7     2
 -0.0017486714     2     3     7     4
 0.0223925638     2     3     7     6
 0.0050796903     2     3     7     9
 -0.0155196089     2     3     8     1
 -0.0242853764     2     3     8     2
 0.0060384737     2     3     8     4
 0.0032058183     2     3     8     6
 0.0526538291     2     3     8     9
 -0.0147359445     2     3     9     7
 0.0538242569     2     3     9     8
 0.0708178592     2     4     1     1
 -0.0068853457     2     4     1     2
 0.0000046070     2     4     1     6
 0.0025371768     2     4     1     9
 0.0026582475     2     4     3     3
 -0.0132847083     2     4     3     7
 0.0333687789     2     4     3     8
 -0.0355299955     2     4     4     1
 -0.5529715312     2     4     4     2
 0.0705595893     2     4     4     6
 -0.0470965798     2     4     4     9
 0.0064731207     2     4     5     5
 -0.0088568885     2     4     6     1
 -0.0363475664     2     4     6     2
 -0.0116060282     2     4     6     6
 0.0008445239     2     4     6     9
 0.0017486714     2     4     7     3
 -0.0141601442     2     4     7     7
 -0.0040754942     2     4     7     8
 -0.0060384737     2     4     8     3
 0.0045644403     2     4     8     7
 -0.0190306662     2     4     8     8
 0.0158914137     2     4     9     1
 0.0429389591     2     4     9     2
 -0.0029013431     2     4     9     6
 -0.0287492747     2     4     9     9
 -0.0407939896     2     5     5     1
 -0.5831010109     2     5     5     2
 -0.0064731207     2     5     5     4
 0.0680883023     2     5     5     6
 -0.0295588766     2     5     5     9
 -0.1549806179     2     6     1     1
 -0.0017779698     2     6     1     2
 -0.0000046070     2     6     1     4
 0.0010162125     2     6     1     9
 -0.0706977168     2     6     3     3
 0.0167870380     2     6     3     7
 -0.0026353488     2     6     3     8
 -0.0082950838     2     6     4     1
 -0.0363475664     2     6     4     2
 -0.0705595893     2     6     4     4
 0.0038443039     2     6     4     9
 -0.0680883023     2     6     5     5
 -0.0027845550     2     6     6     1
 -0.3344132549     2     6     6     2
 0.0116060282     2     6     6     4
 0.0118165325     2     6     6     9
 -0.0223925638     2     6     7     3
 -0.0134275341     2     6     7     7
 0.0220503787     2     6     7     8
 -0.0032058183     2     6     8     3
 0.0123721342     2     6     8     7
 -0.0368746000     2     6     8     8
 0.0050716695     2     6     9     1
 0.0809888753     2     6     9     2
 0.0029013431     2     6     9     4
 -0.0279267483     2     6     9     9
 -0.0032196686     2     7     1     3
 0.0009028751     2     7     1     8
 0.0109634579     2     7     3     1
 0.0737007253     2     7     3     2
 0.0132847083     2     7     3     4
 -0.0167870380     2     7     3     6
 0.0179392776     2     7     3     9
 0.0149952504     2     7     4     3
 -0.0081435007     2     7     4     8
 -0.0402562077     2     7     6     3
 0.0097143046     2     7     6     8
 -0.0072459904     2     7     7     1
 -0.3279083859     2     7     7     2
 0.0141601442     2     7     7     4
 0.0134275341     2     7     7     6
 0.0013892763     2     7     7     9
 0.0073364178     2     7     8     1
 0.0854941388     2     7     8     2
 -0.0045644403     2     7     8     4
 -0.0123721342     2     7     8     6
 0.0038929062     2     7     8     9
 0.0147359445     2     7     9     3
 -0.0068721052     2     7     9     8
 0.0046993573     2     8     1     3
 -0.0009028751     2     8     1     7
 -0.0101867661     2     8     3     1
 -0.0242853764     2     8     3     2
 -0.0333687789     2     8     3     4
 0.0026353488     2     8     3     6
 -0.0003650191     2     8     3     9
 -0.0389602311     2     8     4     3
 0.0081435007     2     8     4     7
 -0.0000147878     2     8     6     3
 -0.0097143046     2     8     6     7
 0.0063889782     2     8     7     1
 0.0854941388     2     8     7     2
 0.0040754942     2     8     7     4
 -0.0220503787     2     8     7     6
 0.0107389090     2     8     7     9
 -0.0061169877     2     8     8     1
 -0.4727631669     2     8     8     2
 0.0190306662     2     8     8     4
 0.0368746000     2     8     8     6
 -0.0222512675     2     8     8     9
 -0.0538242569     2     8     9     3
 0.0068721052     2     8     9     7
 0.1296274801     2     9     1     1
 0.0040023421     2     9     1     2
 -0.0025371768     2     9     1     4
 -0.0010162125     2     9     1     6
 0.0748322882     2     9     3     3
 -0.0179392776     2     9     3     7
 0.0003650191     2     9     3     8
 0.0126002146     2     9     4     1
 0.0429389591     2     9     4     2
 0.0470965798     2     9     4     4
 -0.0038443039     2     9     4     6
 0.0295588766     2     9     5     5
 0.0040582300     2     9     6     1
 0.0809888753     2     9     6     2
 -0.0008445239     2     9     6     4
 -0.0118165325     2     9     6     6
 -0.0050796903     2     9     7     3
 -0.0013892763     2     9     7     7
 -0.0107389090     2     9     7     8
 -0.0526538291     2     9     8     3
 -0.0038929062     2     9     8     7
 0.0222512675     2     9     8     8
 -0.0068360024     2     9     9     1
 -0.4719298487     2     9     9     2
 0.0287492747     2     9     9     4
 0.0279267483     2     9     9     6
 -0.8591464402     3     1     1     3
 0.1906117101     3     1     1     7
 -0.1284023305     3     1     1     8
 -0.0300766017     3     1     2     3
 0.0109634579     3     1     2     7
 -0.0101867661     3     1     2     8
 -0.0104522054     3     1     4     3
 0.0041114379     3     1     4     7
 -0.0033904605     3     1     4     8
 0.0047485206     3     1     6     3
 -0.0057542267     3     1     6     7
 0.0045211584     3     1     6     8
 -0.0032196686     3     1     7     2
 0.0017914669     3     1     7     4
 -0.0025266320     3     1     7     6
 0.0022093459     3     1     7     9
 0.0046993573     3     1     8     2
 -0.0059894040     3     1     8     4
 -0.0003532125     3     1     8     6
 -0.0048300789     3     1     8     9
 0.0007670085     3     1     9     3
 0.0029795576     3     1     9     7
 -0.0085279085     3     1     9     8
 -0.0300766017     3     2     1     3
 0.0150370146     3     2     1     7
 -0.0155196089     3     2     1     8
 -0.5253393310     3     2     2     3
 0.0737007253     3     2     2     7
 -0.0242853764     3     2     2     8
 -0.0026582475     3     2     4     3
 -0.0017486714     3     2     4     7
 0.0060384737     3     2     4     8
 0.0706977168     3     2     6     3
 0.0223925638     3     2     6     7
 0.0032058183     3     2     6     8
 0.0032196686     3     2     7     1
 -0.0149952504     3     2     7     4
 0.0402562077     3     2     7     6
 -0.0147359445     3     2     7     9
 -0.0046993573     3     2     8     1
 0.0389602311     3     2     8     4
 0.0000147878     3     2     8     6
 0.0538242569     3     2     8     9
 -0.0748322882     3     2     9     3
 0.0050796903     3     2     9     7
 0.0526538291     3     2     9     8
 0.8591464402     3     3     1     1
 0.0300766017     3     3     1     2
 0.0104522054     3     3     1     4
 -0.0047485206     3     3     1     6
 -0.0007670085     3     3     1     9
 0.0300766017     3     3     2     1
 0.5253393310     3     3     2     2
 0.0026582475     3     3     2     4
 -0.0706977168     3     3     2     6
 0.0748322882     3     3     2     9
 0.0104522054     3     3     4     1
 0.0026582475     3     3     4     2
 0.5620097328     3     3     4     4
 0.0379859629     3     3     4     6
 -0.0467373966     3     3     4     9
 0.5875300462     3     3     5     5
 -0.0047485206     3     3     6     1
 -0.0706977168     3     3     6     2
 0.0379859629     3     3     6     4
 0.3382919283     3     3     6     6
 -0.0787969863     3     3     6     9
 0.3040621115     3     3     7     7
 -0.0598111152     3     3     7     8
 -0.0598111152     3     3     8     7
 0.4353208957     3     3     8     8
 -0.0007670085     3     3     9     1
 0.0748322882     3     3     9     2
 -0.0467373966     3     3     9     4
 -0.0787969863     3     3     9     6
 0.4516309960     3     3     9     9
 -0.0104522054     3     4     1     3
 0.0025074374     3     4     1     7
 0.0024743204     3     4     1     8
 -0.0026582475     3     4     2     3
 0.0132847083     3     4     2     7
 -0.0333687789     3     4     2     8
 -0.5620097328     3     4     4     3
 0.0942836091     3     4     4     7
 -0.0547168951     3     4     4     8
 -0.0379859629     3     4     6     3
 0.0024824496     3     4     6     7
 -0.0085719760     3     4     6     8
 -0.0017914669     3     4     7     1
 0.0149952504     3     4     7     2
 -0.0088401073     3     4     7     6
 -0.0052085614     3     4     7     9
 0.0059894040     3     4     8     1
 -0.0389602311     3     4     8     2
 -0.0029969069     3     4     8     6
 0.0035783065     3     4     8     9
 0.0467373966     3     4     9     3
 -0.0130155711     3     4     9     7
 -0.0088239619     3     4     9     8
 -0.5875300462     3     5     5     3
 0.0973848434     3     5     5     7
 -0.0449042587     3     5     5     8
 0.0047485206     3     6     1     3
 -0.0030275190     3     6     1     7
 0.0047388241     3     6     1     8
 0.0706977168     3     6     2     3
 -0.0167870380     3     6     2     7
 0.0026353488     3     6     2     8
 -0.0379859629     3     6     4     3
 0.0102888048     3     6     4     7
 -0.0050225310     3     6     4     8
 -0.3382919283     3     6     6     3
 0.0348107496     3     6     6     7
 0.0170826963     3     6     6     8
 0.0025266320     3     6     7     1
 -0.0402562077     3     6     7     2
 0.0088401073     3     6     7     4
 0.0332488429     3     6     7     9
 0.0003532125     3     6     8     1
 -0.0000147878     3     6     8     2
 0.0029969069     3     6     8     4
 0.0151377960     3     6     8     9
 0.0787969863     3     6     9     3
 -0.0183947038     3     6     9     7
 0.0161694820     3     6     9     8
 -0.1906117101     3     7     1     1
 -0.0150370146     3     7     1     2
 -0.0025074374     3     7     1     4
 0.0030275190     3     7     1     6
 -0.0005883989     3     7     1     9
 -0.0109634579     3     7     2     1
 -0.0737007253     3     7     2     2
 -0.0132847083     3     7     2     4
 0.0167870380     3     7     2     6
 -0.0179392776     3     7     2     9
 -0.0041114379     3     7     4     1
 0.0017486714     3     7     4     2
 -0.0942836091     3     7     4     4
 -0.0102888048     3     7     4     6
 0.0069623872     3     7     4     9
 -0.0973848434     3     7     5     5
 0.0057542267     3     7     6     1
 -0.0223925638     3     7     6     2
 -0.0024824496     3     7     6     4
 -0.0348107496     3     7     6     6
 0.0516740338     3     7     6     9
 -0.3040621115     3     7     7     3
 0.0291408532     3     7     7     8
 0.0598111152     3     7     8     3
 -0.0340074581     3     7     8     8
 -0.0029795576     3     7     9     1
 -0.0050796903     3     7     9     2
 0.0130155711     3     7     9     4
 0.0183947038     3     7     9     6
 -0.0442750215     3     7     9     9
 0.1284023305     3     8     1     1
 0.0155196089     3     8     1     2
 -0.0024743204     3     8     1     4
 -0.0047388241     3     8     1     6
 0.0035373426     3     8     1     9
 0.0101867661     3     8     2     1
 0.0242853764     3     8     2     2
 0.0333687789     3     8     2     4
 -0.0026353488     3     8     2     6
 0.0003650191     3     8     2     9
 0.0033904605     3     8     4     1
 -0.0060384737     3     8     4     2
 0.0547168951     3     8     4     4
 0.0050225310     3     8     4     6
 0.0121879674     3     8     4     9
 0.0449042587     3     8     5     5
 -0.0045211584     3     8     6     1
 -0.0032058183     3     8     6     2
 0.0085719760     3     8     6     4
 -0.0170826963     3     8     6     6
 -0.0008536240     3     8     6     9
 0.0598111152     3     8     7     3
 -0.0291408532     3     8     7     7
 -0.4353208957     3     8     8     3
 0.0340074581     3     8     8     7
 0.0085279085     3     8     9     1
 -0.0526538291     3     8     9     2
 0.0088239619     3     8     9     4
 -0.0161694820     3     8     9     6
 0.0186003183     3     8     9     9
 0.0007670085     3     9     1     3
 0.0005883989     3     9     1     7
 -0.0035373426     3     9     1     8
 -0.0748322882     3     9     2     3
 0.0179392776     3     9     2     7
 -0.0003650191     3     9     2     8
 0.0467373966     3     9     4     3
 -0.0069623872     3     9     4     7
 -0.0121879674     3     9     4     8
 0.0787969863     3     9     6     3
 -0.0516740338     3     9     6     7
 0.0008536240     3     9     6     8
 -0.0022093459     3     9     7     1
 0.0147359445     3     9     7     2
 0.0052085614     3     9     7     4
 -0.0332488429     3     9     7     6
 0.0048300789     3     9     8     1
 -0.0538242569     3     9     8     2
 -0.0035783065     3     9     8     4
 -0.0151377960     3     9     8     6
 -0.4516309960     3     9     9     3
 0.0442750215     3     9     9     7
 -0.0186003183     3     9     9     8
 -0.0708178592     4     1     1     2
 -0.9527923560     4     1     1     4
 -0.0875939420     4     1     1     6
 0.1339428236     4     1     1     9
 0.0068853457     4     1     2     2
 -0.0355299955     4     1     2     4
 -0.0082950838     4     1     2     6
 0.0126002146     4     1     2     9
 0.0104522054     4     1     3     3
 -0.0041114379     4     1     3     7
 0.0033904605     4     1     3     8
 0.0138421579     4     1     5     5
 -0.0000046070     4     1     6     2
 0.0107858677     4     1     6     4
 0.0054635455     4     1     6     6
 -0.0067755718     4     1     6     9
 -0.0025074374     4     1     7     3
 0.0038413139     4     1     7     7
 -0.0040179341     4     1     7     8
 -0.0024743204     4     1     8     3
 -0.0016234425     4     1     8     7
 0.0060874745     4     1     8     8
 -0.0025371768     4     1     9     2
 -0.0127454930     4     1     9     4
 -0.0050564444     4     1     9     6
 0.0108440714     4     1     9     9
 0.0708178592     4     2     1     1
 -0.0355299955     4     2     1     4
 -0.0088568885     4     2     1     6
 0.0158914137     4     2     1     9
 -0.0068853457     4     2     2     1
 -0.5529715312     4     2     2     4
 -0.0363475664     4     2     2     6
 0.0429389591     4     2     2     9
 0.0026582475     4     2     3     3
 0.0017486714     4     2     3     7
 -0.0060384737     4     2     3     8
 0.0064731207     4     2     5     5
 0.0000046070     4     2     6     1
 0.0705595893     4     2     6     4
 -0.0116060282     4     2     6     6
 -0.0029013431     4     2     6     9
 -0.0132847083     4     2     7     3
 -0.0141601442     4     2     7     7
 0.0045644403     4     2     7     8
 0.0333687789     4     2     8     3
 -0.0040754942     4     2     8     7
 -0.0190306662     4     2     8     8
 0.0025371768     4     2     9     1
 -0.0470965798     4     2     9     4
 0.0008445239     4     2     9     6
 -0.0287492747     4     2     9     9
 -0.0017914669     4     3     1     7
 0.0059894040     4     3     1     8
 0.0149952504     4     3     2     7
 -0.0389602311     4     3     2     8
 -0.0104522054     4     3     3     1
 -0.0026582475     4     3     3     2
 -0.5620097328     4     3     3     4
 -0.0379859629     4     3     3     6
 0.0467373966     4     3     3     9
 -0.0088401073     4     3     6     7
 -0.0029969069     4     3     6     8
 0.0025074374     4     3     7     1
 0.0132847083     4     3     7     2
 0.0942836091     4     3     7     4
 0.0024824496     4     3     7     6
 -0.0130155711     4     3     7     9
 0.0024743204     4     3     8     1
 -0.0333687789     4     3     8     2
 -0.0547168951     4     3     8     4
 -0.0085719760     4     3     8     6
 -0.0088239619     4     3     8     9
 -0.0052085614     4     3     9     7
 0.0035783065     4     3     9     8
 0.9527923560     4     4     1     1
 0.0355299955     4     4     1     2
 -0.0107858677     4     4     1     6
 0.0127454930     4     4     1     9
 0.0355299955     4     4     2     1
 0.5529715312     4     4     2     2
 -0.0705595893     4     4     2     6
 0.0470965798     4     4     2     9
 0.5620097328     4     4     3     3
 -0.0942836091     4     4     3     7
 0.0547168951     4     4     3     8
 0.6155260632     4     4     5     5
 -0.0107858677     4     4     6     1
 -0.0705595893     4     4     6     2
 0.3216346038     4     4     6     6
 -0.0702816098     4     4     6     9
 -0.0942836091     4     4     7     3
 0.3150811477     4     4     7     7
 -0.0774108723     4     4     7     8
 0.0547168951     4     4     8     3
 -0.0774108723     4     4     8     7
 0.4264680760     4     4     8     8
 0.0127454930     4     4     9     1
 0.0470965798     4     4     9     2
 -0.0702816098     4     4     9     6
 0.4263025432     4     4     9     9
 -0.0138421579     4     5     5     1
 -0.0064731207     4     5     5     2
 -0.6155260632     4     5     5     4
 -0.0473215939     4     5     5     6
 0.0592649591     4     5     5     9
 0.0875939420     4     6     1     1
 0.0088568885     4     6     1     2
 0.0107858677     4     6     1     4
 -0.0017863285     4     6     1     9
 0.0082950838     4     6     2     1
 0.0363475664     4     6     2     2
 0.0705595893     4     6     2     4
 -0.0038443039     4     6     2     9
 0.0379859629     4     6     3     3
 -0.0102888048     4     6     3     7
 0.0050225310     4     6     3     8
 0.0473215939     4     6     5     5
 -0.0054635455     4     6     6     1
 0.0116060282     4     6     6     2
 -0.3216346038     4     6     6     4
 -0.0041992550     4     6     6     9
 -0.0024824496     4     6     7     3
 0.0149529274     4     6     7     7
 -0.0362972564     4     6     7     8
 0.0085719760     4     6     8     3
 -0.0066008639     4     6     8     7
 0.0150794653     4     6     8     8
 0.0050564444     4     6     9     1
 -0.0008445239     4     6     9     2
 0.0702816098     4     6     9     4
 0.0032726688     4     6     9     9
 0.0017914669     4     7     1     3
 -0.0023871349     4     7     1     8
 -0.0149952504     4     7     2     3
 0.0081435007     4     7     2     8
 0.0041114379     4     7     3     1
 -0.0017486714     4     7     3     2
 0.0942836091     4     7     3     4
 0.0102888048     4     7     3     6
 -0.0069623872     4     7     3     9
 0.0088401073     4     7     6     3
 -0.0296236602     4     7     6     8
 -0.0038413139     4     7     7     1
 0.0141601442     4     7     7     2
 -0.3150811477     4     7     7     4
 -0.0149529274     4     7     7     6
 0.0029549739     4     7     7     9
 0.0016234425     4     7     8     1
 0.0040754942     4     7     8     2
 0.0774108723     4     7     8     4
 0.0066008639     4     7     8     6
 -0.0225602325     4     7     8     9
 0.0052085614     4     7     9     3
 -0.0073972956     4     7     9     8
 -0.0059894040     4     8     1     3
 0.0023871349     4     8     1     7
 0.0389602311     4     8     2     3
 -0.0081435007     4     8     2     7
 -0.0033904605     4     8     3     1
 0.0060384737     4     8     3     2