&FCI NORB= 11,NELEC= 10,MS2=0,
 ORBSYM=1,1,1,1,1,1,1,1,1,1,1
 ISYM=1,
&END
 0.9834969471     1     1     2     2
 0.0688203734     1     1     2     4
 -0.1436373703     1     1     2     6
 -0.1144401970     1     1     2     9
 0.0387150688     1     1     2    10
 0.8680283883     1     1     3     3
 0.1732377501     1     1     3     7
 0.1019589362     1     1     3     8
 0.0688203734     1     1     4     2
 0.9514770770     1     1     4     4
 0.0765124886     1     1     4     6
 0.0610261814     1     1     4     9
 -0.2595570022     1     1     4    10
 1.0019428499     1     1     5     5
 -0.3357075305     1     1     5    11
 -0.1436373703     1     1     6     2
 0.0765124886     1     1     6     4
 0.3481134207     1     1     6     6
 0.1073676630     1     1     6     9
 -0.0899585210     1     1     6    10
 0.1732377501     1     1     7     3
 0.3256371431     1     1     7     7
 0.0990965694     1     1     7     8
 0.1019589362     1     1     8     3
 0.0990965694     1     1     8     7
 0.4552745684     1     1     8     8
 -0.1144401970     1     1     9     2
 0.0610261814     1     1     9     4
 0.1073676630     1     1     9     6
 0.4550642459     1     1     9     9
 -0.0558039766     1     1     9    10
 0.0387150688     1     1    10     2
 -0.2595570022     1     1    10     4
 -0.0899585210     1     1    10     6
 -0.0558039766     1     1    10     9
 0.5360595404     1     1    10    10
 -0.3357075305     1     1    11     5
 0.6619633103     1     1    11    11
 -0.9834969471     1     2     2     1
 -0.0069563483     1     2     2     4
 -0.0015344281     1     2     2     6
 -0.0018599447     1     2     2     9
 0.0056555720     1     2     2    10
 0.0309422846     1     2     3     3
 0.0130792235     1     2     3     7
 0.0115648931     1     2     3     8
 -0.0688203734     1     2     4     1
 0.0359227375     1     2     4     4
 0.0072054230     1     2     4     6
 0.0078820131     1     2     4     9
 -0.0222834412     1     2     4    10
 0.0410971193     1     2     5     5
 -0.0288756840     1     2     5    11
 0.1436373703     1     2     6     1
 0.0070318835     1     2     6     4
 0.0017687695     1     2     6     6
 0.0021424079     1     2     6     9
 -0.0051654731     1     2     6    10
 0.0096068806     1     2     7     3
 0.0048419332     1     2     7     7
 0.0042807517     1     2     7     8
 0.0076492650     1     2     8     3
 0.0038069963     1     2     8     7
 0.0033908674     1     2     8     8
 0.1144401970     1     2     9     1
 0.0068840090     1     2     9     4
 0.0018834633     1     2     9     6
 0.0017094783     1     2     9     9
 -0.0052489632     1     2     9    10
 -0.0387150688     1     2    10     1
 -0.0166480149     1     2    10     4
 -0.0036838566     1     2    10     6
 -0.0043215006     1     2    10     9
 0.0133317627     1     2    10    10
 -0.0212089364     1     2    11     5
 0.0189522612     1     2    11    11
 0.0026558276     1     3     2     7
 0.0032697125     1     3     2     8
 -0.8680283883     1     3     3     1
 -0.0309422846     1     3     3     2
 -0.0105928126     1     3     3     4
 0.0045689963     1     3     3     6
 0.0003404550     1     3     3     9
 0.0025728084     1     3     3    10
 -0.0012696170     1     3     4     7
 -0.0049183351     1     3     4     8
 0.0021211946     1     3     6     7
 -0.0004192486     1     3     6     8
 -0.1732377501     1     3     7     1
 -0.0096068806     1     3     7     2
 -0.0034218443     1     3     7     4
 0.0045125723     1     3     7     6
 0.0025371057     1     3     7     9
 -0.0001705193     1     3     7    10
 -0.1019589362     1     3     8     1
 -0.0076492650     1     3     8     2
 -0.0024697576     1     3     8     4
 0.0027127258     1     3     8     6
 0.0045984977     1     3     8     9
 -0.0038285190     1     3     8    10
 0.0019630451     1     3     9     7
 0.0028807549     1     3     9     8
 0.0001934857     1     3    10     7
 -0.0005085890     1     3    10     8
 -0.0688203734     1     4     2     1
 0.0069563483     1     4     2     2
 -0.0003821672     1     4     2     6
 0.0004915681     1     4     2     9
 -0.0042238708     1     4     2    10
 0.0105928126     1     4     3     3
 0.0023354046     1     4     3     7
 -0.0023157785     1     4     3     8
 -0.9514770770     1     4     4     1
 -0.0359227375     1     4     4     2
 0.0091628217     1     4     4     6
 0.0096230511     1     4     4     9
 -0.0065356813     1     4     4    10
 0.0137854019     1     4     5     5
 -0.0091343985     1     4     5    11
 -0.0765124886     1     4     6     1
 -0.0070318835     1     4     6     2
 0.0040866257     1     4     6     6
 0.0028796888     1     4     6     9
 -0.0037724395     1     4     6    10
 0.0034218443     1     4     7     3
 0.0027302832     1     4     7     7
 0.0011535143     1     4     7     8
 0.0024697576     1     4     8     3
 0.0028571033     1     4     8     7
 0.0028077172     1     4     8     8
 -0.0610261814     1     4     9     1
 -0.0068840090     1     4     9     2
 0.0029675215     1     4     9     6
 0.0059939807     1     4     9     9
 -0.0019938550     1     4     9    10
 0.2595570022     1     4    10     1
 0.0166480149     1     4    10     2
 -0.0082133851     1     4    10     6
 -0.0066278428     1     4    10     9
 0.0028944843     1     4    10    10
 -0.0075098781     1     4    11     5
 0.0064808295     1     4    11    11
 -0.0059413274     1     5     2    11
 -0.0011661725     1     5     4    11
 -1.0019428499     1     5     5     1
 -0.0410971193     1     5     5     2
 -0.0137854019     1     5     5     4
 0.0088401581     1     5     5     6
 0.0117787522     1     5     5     9
 0.0028927266     1     5     5    10
 -0.0023315692     1     5     6    11
 0.0022963557     1     5     9    11
 0.0016286544     1     5    10    11
 0.3357075305     1     5    11     1
 0.0212089364     1     5    11     2
 0.0075098781     1     5    11     4
 -0.0088500053     1     5    11     6
 -0.0064788454     1     5    11     9
 -0.0000471750     1     5    11    10
 0.1436373703     1     6     2     1
 0.0015344281     1     6     2     2
 0.0003821672     1     6     2     4
 0.0002977940     1     6     2     9
 -0.0014803326     1     6     2    10
 -0.0045689963     1     6     3     3
 -0.0024418200     1     6     3     7
 -0.0031609710     1     6     3     8
 -0.0765124886     1     6     4     1
 -0.0072054230     1     6     4     2
 -0.0091628217     1     6     4     4
 -0.0001357602     1     6     4     9
 0.0044996839     1     6     4    10
 -0.0088401581     1     6     5     5
 0.0064455872     1     6     5    11
 -0.3481134207     1     6     6     1
 -0.0017687695     1     6     6     2
 -0.0040866257     1     6     6     4
 -0.0003769036     1     6     6     9
 0.0018945423     1     6     6    10
 -0.0045125723     1     6     7     3
 -0.0017773801     1     6     7     7
 -0.0017561939     1     6     7     8
 -0.0027127258     1     6     8     3
 -0.0008487450     1     6     8     7
 -0.0006106344     1     6     8     8
 -0.1073676630     1     6     9     1
 -0.0018834633     1     6     9     2
 -0.0029675215     1     6     9     4
 0.0006942003     1     6     9     9
 0.0016004718     1     6     9    10
 0.0899585210     1     6    10     1
 0.0036838566     1     6    10     2
 0.0082133851     1     6    10     4
 0.0005790138     1     6    10     9
 -0.0051413081     1     6    10    10
 0.0088500053     1     6    11     5
 -0.0068568517     1     6    11    11
 -0.0026558276     1     7     2     3
 0.0004616109     1     7     2     8
 -0.1732377501     1     7     3     1
 -0.0130792235     1     7     3     2
 -0.0023354046     1     7     3     4
 0.0024418200     1     7     3     6
 0.0005901179     1     7     3     9
 -0.0002650558     1     7     3    10
 0.0012696170     1     7     4     3
 -0.0017220607     1     7     4     8
 -0.0021211946     1     7     6     3
 -0.0009087503     1     7     6     8
 -0.3256371431     1     7     7     1
 -0.0048419332     1     7     7     2
 -0.0027302832     1     7     7     4
 0.0017773801     1     7     7     6
 0.0009284783     1     7     7     9
 0.0006133904     1     7     7    10
 -0.0990965694     1     7     8     1
 -0.0038069963     1     7     8     2
 -0.0028571033     1     7     8     4
 0.0008487450     1     7     8     6
 0.0016122746     1     7     8     9
 -0.0005456672     1     7     8    10
 -0.0019630451     1     7     9     3
 0.0005380569     1     7     9     8
 -0.0001934857     1     7    10     3
 -0.0002941482     1     7    10     8
 -0.0032697125     1     8     2     3
 -0.0004616109     1     8     2     7
 -0.1019589362     1     8     3     1
 -0.0115648931     1     8     3     2
 0.0023157785     1     8     3     4
 0.0031609710     1     8     3     6
 0.0017539559     1     8     3     9
 -0.0031624779     1     8     3    10
 0.0049183351     1     8     4     3
 0.0017220607     1     8     4     7
 0.0004192486     1     8     6     3
 0.0009087503     1     8     6     7
 -0.0990965694     1     8     7     1
 -0.0042807517     1     8     7     2
 -0.0011535143     1     8     7     4
 0.0017561939     1     8     7     6
 0.0010716855     1     8     7     9
 -0.0002539980     1     8     7    10
 -0.4552745684     1     8     8     1
 -0.0033908674     1     8     8     2
 -0.0028077172     1     8     8     4
 0.0006106344     1     8     8     6
 0.0012514846     1     8     8     9
 -0.0001995064     1     8     8    10
 -0.0028807549     1     8     9     3
 -0.0005380569     1     8     9     7
 0.0005085890     1     8    10     3
 0.0002941482     1     8    10     7
 0.1144401970     1     9     2     1
 0.0018599447     1     9     2     2
 -0.0004915681     1     9     2     4
 -0.0002977940     1     9     2     6
 -0.0009530885     1     9     2    10
 -0.0003404550     1     9     3     3
 -0.0005901179     1     9     3     7
 -0.0017539559     1     9     3     8
 -0.0610261814     1     9     4     1
 -0.0078820131     1     9     4     2
 -0.0096230511     1     9     4     4
 0.0001357602     1     9     4     6
 0.0046430725     1     9     4    10
 -0.0117787522     1     9     5     5
 0.0086145519     1     9     5    11
 -0.1073676630     1     9     6     1
 -0.0021424079     1     9     6     2
 -0.0028796888     1     9     6     4
 0.0003769036     1     9     6     6
 0.0010231587     1     9     6    10
 -0.0025371057     1     9     7     3
 -0.0009284783     1     9     7     7
 -0.0010716855     1     9     7     8
 -0.0045984977     1     9     8     3
 -0.0016122746     1     9     8     7
 -0.0012514846     1     9     8     8
 -0.4550642459     1     9     9     1
 -0.0017094783     1     9     9     2
 -0.0059939807     1     9     9     4
 -0.0006942003     1     9     9     6
 0.0035623238     1     9     9    10
 0.0558039766     1     9    10     1
 0.0043215006     1     9    10     2
 0.0066278428     1     9    10     4
 -0.0005790138     1     9    10     6
 -0.0040088423     1     9    10    10
 0.0064788454     1     9    11     5
 -0.0051073821     1     9    11    11
 -0.0387150688     1    10     2     1
 -0.0056555720     1    10     2     2
 0.0042238708     1    10     2     4
 0.0014803326     1    10     2     6
 0.0009530885     1    10     2     9
 -0.0025728084     1    10     3     3
 0.0002650558     1    10     3     7
 0.0031624779     1    10     3     8
 0.2595570022     1    10     4     1
 0.0222834412     1    10     4     2
 0.0065356813     1    10     4     4
 -0.0044996839     1    10     4     6
 -0.0046430725     1    10     4     9
 -0.0028927266     1    10     5     5
 0.0017611444     1    10     5    11
 0.0899585210     1    10     6     1
 0.0051654731     1    10     6     2
 0.0037724395     1    10     6     4
 -0.0018945423     1    10     6     6
 -0.0010231587     1    10     6     9
 0.0001705193     1    10     7     3
 -0.0006133904     1    10     7     7
 0.0002539980     1    10     7     8
 0.0038285190     1    10     8     3
 0.0005456672     1    10     8     7
 0.0001995064     1    10     8     8
 0.0558039766     1    10     9     1
 0.0052489632     1    10     9     2
 0.0019938550     1    10     9     4
 -0.0016004718     1    10     9     6
 -0.0035623238     1    10     9     9
 -0.5360595404     1    10    10     1
 -0.0133317627     1    10    10     2
 -0.0028944843     1    10    10     4
 0.0051413081     1    10    10     6
 0.0040088423     1    10    10     9
 0.0000471750     1    10    11     5
 -0.0001208335     1    10    11    11
 0.0059413274     1    11     2     5
 0.0011661725     1    11     4     5
 0.3357075305     1    11     5     1
 0.0288756840     1    11     5     2
 0.0091343985     1    11     5     4
 -0.0064455872     1    11     5     6
 -0.0086145519     1    11     5     9
 -0.0017611444     1    11     5    10
 0.0023315692     1    11     6     5
 -0.0022963557     1    11     9     5
 -0.0016286544     1    11    10     5
 -0.6619633103     1    11    11     1
 -0.0189522612     1    11    11     2
 -0.0064808295     1    11    11     4
 0.0068568517     1    11    11     6
 0.0051073821     1    11    11     9
 0.0001208335     1    11    11    10
 -0.9834969471     2     1     1     2
 -0.0688203734     2     1     1     4
 0.1436373703     2     1     1     6
 0.1144401970     2     1     1     9
 -0.0387150688     2     1     1    10
 0.0309422846     2     1     3     3
 0.0096068806     2     1     3     7
 0.0076492650     2     1     3     8
 -0.0069563483     2     1     4     2
 0.0359227375     2     1     4     4
 0.0070318835     2     1     4     6
 0.0068840090     2     1     4     9
 -0.0166480149     2     1     4    10
 0.0410971193     2     1     5     5
 -0.0212089364     2     1     5    11
 -0.0015344281     2     1     6     2
 0.0072054230     2     1     6     4
 0.0017687695     2     1     6     6
 0.0018834633     2     1     6     9
 -0.0036838566     2     1     6    10
 0.0130792235     2     1     7     3
 0.0048419332     2     1     7     7
 0.0038069963     2     1     7     8
 0.0115648931     2     1     8     3
 0.0042807517     2     1     8     7
 0.0033908674     2     1     8     8
 -0.0018599447     2     1     9     2
 0.0078820131     2     1     9     4
 0.0021424079     2     1     9     6
 0.0017094783     2     1     9     9
 -0.0043215006     2     1     9    10
 0.0056555720     2     1    10     2
 -0.0222834412     2     1    10     4
 -0.0051654731     2     1    10     6
 -0.0052489632     2     1    10     9
 0.0133317627     2     1    10    10
 -0.0288756840     2     1    11     5
 0.0189522612     2     1    11    11
 0.9834969471     2     2     1     1
 0.0069563483     2     2     1     4
 0.0015344281     2     2     1     6
 0.0018599447     2     2     1     9
 -0.0056555720     2     2     1    10
 0.5275298238     2     2     3     3
 0.0697932162     2     2     3     7
 0.0215639814     2     2     3     8
 0.0069563483     2     2     4     1
 0.5514349478     2     2     4     4
 0.0329917556     2     2     4     6
 0.0203341359     2     2     4     9
 -0.0974607051     2     2     4    10
 0.5802572998     2     2     5     5
 -0.1240236888     2     2     5    11
 0.0015344281     2     2     6     1
 0.0329917556     2     2     6     4
 0.3012766985     2     2     6     6
 0.0579802870     2     2     6     9
 -0.0525050526     2     2     6    10
 0.0697932162     2     2     7     3
 0.2842739243     2     2     7     7
 0.0607364575     2     2     7     8
 0.0215639814     2     2     8     3
 0.0607364575     2     2     8     7
 0.4060385562     2     2     8     8
 0.0018599447     2     2     9     1
 0.0203341359     2     2     9     4
 0.0579802870     2     2     9     6
 0.4070069150     2     2     9     9
 -0.0145772108     2     2     9    10
 -0.0056555720     2     2    10     1
 -0.0974607051     2     2    10     4
 -0.0525050526     2     2    10     6
 -0.0145772108     2     2    10     9
 0.4053619255     2     2    10    10
 -0.1240236888     2     2    11     5
 0.4734470404     2     2    11    11
 -0.0026558276     2     3     1     7
 -0.0032697125     2     3     1     8
 -0.0309422846     2     3     3     1
 -0.5275298238     2     3     3     2
 -0.0023272013     2     3     3     4
 0.0655437903     2     3     3     6
 0.0703639192     2     3     3     9
 -0.0161771599     2     3     3    10
 0.0105489848     2     3     4     7
 0.0332442353     2     3     4     8
 -0.0339842286     2     3     6     7
 0.0000651767     2     3     6     8
 -0.0130792235     2     3     7     1
 -0.0697932162     2     3     7     2
 0.0007667240     2     3     7     4
 -0.0193829635     2     3     7     6
 -0.0007146642     2     3     7     9
 -0.0004085991     2     3     7    10
 -0.0115648931     2     3     8     1
 -0.0215639814     2     3     8     2
 0.0057590567     2     3     8     4
 0.0031805299     2     3     8     6
 -0.0280688346     2     3     8     9
 0.0262842890     2     3     8    10
 -0.0160979857     2     3     9     7
 -0.0292907567     2     3     9     8
 0.0032712924     2     3    10     7
 0.0232832476     2     3    10     8
 0.0688203734     2     4     1     1
 -0.0069563483     2     4     1     2
 0.0003821672     2     4     1     6
 -0.0004915681     2     4     1     9
 0.0042238708     2     4     1    10
 0.0023272013     2     4     3     3
 0.0098250115     2     4     3     7
 0.0277418632     2     4     3     8
 -0.0359227375     2     4     4     1
 -0.5514349478     2     4     4     2
 0.0650247983     2     4     4     6
 0.0399996378     2     4     4     9
 -0.0233921033     2     4     4    10
 0.0047362565     2     4     5     5
 -0.0076017125     2     4     5    11
 -0.0072054230     2     4     6     1
 -0.0329917556     2     4     6     2
 -0.0097522231     2     4     6     6
 0.0037577623     2     4     6     9
 0.0214394503     2     4     6    10
 -0.0007667240     2     4     7     3
 -0.0124292403     2     4     7     7
 -0.0023739770     2     4     7     8
 -0.0057590567     2     4     8     3
 -0.0081686793     2     4     8     7
 -0.0051933940     2     4     8     8
 -0.0078820131     2     4     9     1
 -0.0203341359     2     4     9     2
 0.0034161768     2     4     9     6
 -0.0254910623     2     4     9     9
 0.0054029417     2     4     9    10
 0.0222834412     2     4    10     1
 0.0974607051     2     4    10     2
 0.0036211120     2     4    10     6
 -0.0090807502     2     4    10     9
 0.0214190165     2     4    10    10
 -0.0049812927     2     4    11     5
 0.0121293147     2     4    11    11
 0.0059413274     2     5     1    11
 -0.0026789858     2     5     4    11
 -0.0410971193     2     5     5     1
 -0.5802572998     2     5     5     2
 -0.0047362565     2     5     5     4
 0.0625463352     2     5     5     6
 0.0245197381     2     5     5     9
 -0.0258459375     2     5     5    10
 0.0244867496     2     5     6    11
 -0.0058832115     2     5     9    11
 -0.0108346890     2     5    10    11
 0.0288756840     2     5    11     1
 0.1240236888     2     5    11     2
 0.0049812927     2     5    11     4
 -0.0005116848     2     5    11     6
 -0.0230113971     2     5    11     9
 -0.0013816899     2     5    11    10
 -0.1436373703     2     6     1     1
 -0.0015344281     2     6     1     2
 -0.0003821672     2     6     1     4
 -0.0002977940     2     6     1     9
 0.0014803326     2     6     1    10
 -0.0655437903     2     6     3     3
 -0.0144626911     2     6     3     7
 -0.0029468421     2     6     3     8
 -0.0070318835     2     6     4     1
 -0.0329917556     2     6     4     2
 -0.0650247983     2     6     4     4
 0.0003192555     2     6     4     9
 0.0177690309     2     6     4    10
 -0.0625463352     2     6     5     5
 0.0246841657     2     6     5    11
 -0.0017687695     2     6     6     1
 -0.3012766985     2     6     6     2
 0.0097522231     2     6     6     4
 -0.0055317491     2     6     6     9
 0.0069823055     2     6     6    10
 0.0193829635     2     6     7     3
 -0.0085901029     2     6     7     7
 -0.0133294840     2     6     7     8
 -0.0031805299     2     6     8     3
 -0.0077531240     2     6     8     7
 -0.0264008657     2     6     8     8
 -0.0021424079     2     6     9     1
 -0.0579802870     2     6     9     2
 -0.0034161768     2     6     9     4
 -0.0211848886     2     6     9     9
 -0.0004779743     2     6     9    10
 0.0051654731     2     6    10     1
 0.0525050526     2     6    10     2
 -0.0036211120     2     6    10     4
 -0.0018603821     2     6    10     9
 -0.0233524705     2     6    10    10
 0.0005116848     2     6    11     5
 -0.0368939362     2     6    11    11
 0.0026558276     2     7     1     3
 -0.0004616109     2     7     1     8
 -0.0096068806     2     7     3     1
 -0.0697932162     2     7     3     2
 -0.0098250115     2     7     3     4
 0.0144626911     2     7     3     6
 0.0148479979     2     7     3     9
 -0.0035573014     2     7     3    10
 -0.0105489848     2     7     4     3
 0.0054471946     2     7     4     8
 0.0339842286     2     7     6     3
 -0.0055879554     2     7     6     8
 -0.0048419332     2     7     7     1
 -0.2842739243     2     7     7     2
 0.0124292403     2     7     7     4
 0.0085901029     2     7     7     6
 -0.0011255109     2     7     7     9
 -0.0003779024     2     7     7    10
 -0.0042807517     2     7     8     1
 -0.0607364575     2     7     8     2
 0.0081686793     2     7     8     4
 0.0077531240     2     7     8     6
 0.0025223257     2     7     8     9
 -0.0000823569     2     7     8    10
 0.0160979857     2     7     9     3
 -0.0038900845     2     7     9     8
 -0.0032712924     2     7    10     3
 0.0039636503     2     7    10     8
 0.0032697125     2     8     1     3
 0.0004616109     2     8     1     7
 -0.0076492650     2     8     3     1
 -0.0215639814     2     8     3     2
 -0.0277418632     2     8     3     4
 0.0029468421     2     8     3     6
 0.0008019773     2     8     3     9
 0.0024719634     2     8     3    10
 -0.0332442353     2     8     4     3
 -0.0054471946     2     8     4     7
 -0.0000651767     2     8     6     3
 0.0055879554     2     8     6     7
 -0.0038069963     2     8     7     1
 -0.0607364575     2     8     7     2
 0.0023739770     2     8     7     4
 0.0133294840     2     8     7     6
 0.0063726642     2     8     7     9
 -0.0041745489     2     8     7    10
 -0.0033908674     2     8     8     1
 -0.4060385562     2     8     8     2
 0.0051933940     2     8     8     4
 0.0264008657     2     8     8     6
 0.0128806595     2     8     8     9
 -0.0075950259     2     8     8    10
 0.0292907567     2     8     9     3
 0.0038900845     2     8     9     7
 -0.0232832476     2     8    10     3
 -0.0039636503     2     8    10     7
 -0.1144401970     2     9     1     1
 -0.0018599447     2     9     1     2
 0.0004915681     2     9     1     4
 0.0002977940     2     9     1     6
 0.0009530885     2     9     1    10
 -0.0703639192     2     9     3     3
 -0.0148479979     2     9     3     7
 -0.0008019773     2     9     3     8
 -0.0068840090     2     9     4     1
 -0.0203341359     2     9     4     2
 -0.0399996378     2     9     4     4
 -0.0003192555     2     9     4     6
 0.0141809551     2     9     4    10
 -0.0245197381     2     9     5     5
 0.0170347181     2     9     5    11
 -0.0018834633     2     9     6     1
 -0.0579802870     2     9     6     2
 -0.0037577623     2     9     6     4
 0.0055317491     2     9     6     6
 0.0013953917     2     9     6    10
 0.0007146642     2     9     7     3
 0.0011255109     2     9     7     7
 -0.0063726642     2     9     7     8
 0.0280688346     2     9     8     3
 -0.0025223257     2     9     8     7
 -0.0128806595     2     9     8     8
 -0.0017094783     2     9     9     1
 -0.4070069150     2     9     9     2
 0.0254910623     2     9     9     4
 0.0211848886     2     9     9     6
 -0.0055939169     2     9     9    10
 0.0052489632     2     9    10     1
 0.0145772108     2     9    10     2
 0.0090807502     2     9    10     4
 0.0018603821     2     9    10     6
 -0.0126288179     2     9    10    10
 0.0230113971     2     9    11     5
 -0.0237225334     2     9    11    11
 0.0387150688     2    10     1     1
 0.0056555720     2    10     1     2
 -0.0042238708     2    10     1     4
 -0.0014803326     2    10     1     6
 -0.0009530885     2    10     1     9
 0.0161771599     2    10     3     3
 0.0035573014     2    10     3     7
 -0.0024719634     2    10     3     8
 0.0166480149     2    10     4     1
 0.0974607051     2    10     4     2
 0.0233921033     2    10     4     4
 -0.0177690309     2    10     4     6
 -0.0141809551     2    10     4     9
 0.0258459375     2    10     5     5
 -0.0085943472     2    10     5    11
 0.0036838566     2    10     6     1
 0.0525050526     2    10     6     2
 -0.0214394503     2    10     6     4
 -0.0069823055     2    10     6     6
 -0.0013953917     2    10     6     9
 0.0004085991     2    10     7     3
 0.0003779024     2    10     7     7
 0.0041745489     2    10     7     8
 -0.0262842890     2    10     8     3
 0.0000823569     2    10     8     7
 0.0075950259     2    10     8     8
 0.0043215006     2    10     9     1
 0.0145772108     2    10     9     2
 -0.0054029417     2    10     9     4
 0.0004779743     2    10     9     6
 0.0055939169     2    10     9     9
 -0.0133317627     2    10    10     1
 -0.4053619255     2    10    10     2
 -0.0214190165     2    10    10     4
 0.0233524705     2    10    10     6
 0.0126288179     2    10    10     9
 0.0013816899     2    10    11     5
 0.0081688065     2    10    11    11
 -0.0059413274     2    11     1     5
 0.0026789858     2    11     4     5
 0.0212089364     2    11     5     1
 0.1240236888     2    11     5     2
 0.0076017125     2    11     5     4
 -0.0246841657     2    11     5     6
 -0.0170347181     2    11     5     9
 0.0085943472     2    11     5    10
 -0.0244867496     2    11     6     5
 0.0058832115     2    11     9     5
 0.0108346890     2    11    10     5
 -0.0189522612     2    11    11     1
 -0.4734470404     2    11    11     2
 -0.0121293147     2    11    11     4
 0.0368939362     2    11    11     6
 0.0237225334     2    11    11     9
 -0.0081688065     2    11    11    10
 -0.8680283883     3     1     1     3
 -0.1732377501     3     1     1     7
 -0.1019589362     3     1     1     8
 -0.0309422846     3     1     2     3
 -0.0096068806     3     1     2     7
 -0.0076492650     3     1     2     8
 -0.0105928126     3     1     4     3
 -0.0034218443     3     1     4     7
 -0.0024697576     3     1     4     8
 0.0045689963     3     1     6     3
 0.0045125723     3     1     6     7
 0.0027127258     3     1     6     8
 0.0026558276     3     1     7     2
 -0.0012696170     3     1     7     4
 0.0021211946     3     1     7     6
 0.0019630451     3     1     7     9
 0.0001934857     3     1     7    10
 0.0032697125     3     1     8     2
 -0.0049183351     3     1     8     4
 -0.0004192486     3     1     8     6
 0.0028807549     3     1     8     9
 -0.0005085890     3     1     8    10
 0.0003404550     3     1     9     3
 0.0025371057     3     1     9     7
 0.0045984977     3     1     9     8
 0.0025728084     3     1    10     3
 -0.0001705193     3     1    10     7
 -0.0038285190     3     1    10     8
 -0.0309422846     3     2     1     3
 -0.0130792235     3     2     1     7
 -0.0115648931     3     2     1     8
 -0.5275298238     3     2     2     3
 -0.0697932162     3     2     2     7
 -0.0215639814     3     2     2     8
 -0.0023272013     3     2     4     3
 0.0007667240     3     2     4     7
 0.0057590567     3     2     4     8
 0.0655437903     3     2     6     3
 -0.0193829635     3     2     6     7
 0.0031805299     3     2     6     8
 -0.0026558276     3     2     7     1
 0.0105489848     3     2     7     4
 -0.0339842286     3     2     7     6
 -0.0160979857     3     2     7     9
 0.0032712924     3     2     7    10
 -0.0032697125     3     2     8     1
 0.0332442353     3     2     8     4
 0.0000651767     3     2     8     6
 -0.0292907567     3     2     8     9
 0.0232832476     3     2     8    10
 0.0703639192     3     2     9     3
 -0.0007146642     3     2     9     7
 -0.0280688346     3     2     9     8
 -0.0161771599     3     2    10     3
 -0.0004085991     3     2    10     7
 0.0262842890     3     2    10     8
 0.8680283883     3     3     1     1
 0.0309422846     3     3     1     2
 0.0105928126     3     3     1     4
 -0.0045689963     3     3     1     6
 -0.0003404550     3     3     1     9
 -0.0025728084     3     3     1    10
 0.0309422846     3     3     2     1
 0.5275298238     3     3     2     2
 0.0023272013     3     3     2     4
 -0.0655437903     3     3     2     6
 -0.0703639192     3     3     2     9
 0.0161771599     3     3     2    10
 0.0105928126     3     3     4     1
 0.0023272013     3     3     4     2
 0.5626990507     3     3     4     4
 0.0339993329     3     3     4     6
 0.0245917273     3     3     4     9
 -0.0968632944     3     3     4    10
 0.5873757792     3     3     5     5
 -0.1222230422     3     3     5    11
 -0.0045689963     3     3     6     1
 -0.0655437903     3     3     6     2
 0.0339993329     3     3     6     4
 0.3059948125     3     3     6     6
 0.0596950917     3     3     6     9
 -0.0528318334     3     3     6    10
 0.2675809678     3     3     7     7
 0.0446044746     3     3     7     8
 0.0446044746     3     3     8     7