&FCI NORB=  6,NELEC= 10,MS2=0,
 ORBSYM=1,1,1,1,1,1
 ISYM=1,
&END
 0.9848252693     1     1     2     2
 0.0656654143     1     1     2     4
 -0.0798837308     1     1     2     6
 0.8726397470     1     1     3     3
 0.0656654143     1     1     4     2
 0.9471703774     1     1     4     4
 0.0423179273     1     1     4     6
 0.9887158330     1     1     5     5
 -0.0798837308     1     1     6     2
 0.0423179273     1     1     6     4
 0.2482729278     1     1     6     6
 -0.9848252693     1     2     2     1
 -0.0071134486     1     2     2     4
 -0.0006953916     1     2     2     6
 0.0313897169     1     2     3     3
 -0.0656654143     1     2     4     1
 0.0359523952     1     2     4     4
 0.0043723433     1     2     4     6
 0.0404417062     1     2     5     5
 0.0798837308     1     2     6     1
 0.0040213552     1     2     6     4
 0.0007332061     1     2     6     6
 -0.8726397470     1     3     3     1
 -0.0313897169     1     3     3     2
 -0.0106030686     1     3     3     4
 0.0029678026     1     3     3     6
 -0.0656654143     1     4     2     1
 0.0071134486     1     4     2     2
 -0.0001182866     1     4     2     6
 0.0106030686     1     4     3     3
 -0.9471703774     1     4     4     1
 -0.0359523952     1     4     4     2
 0.0056243656     1     4     4     6
 0.0134859405     1     4     5     5
 -0.0423179273     1     4     6     1
 -0.0040213552     1     4     6     2
 0.0020117195     1     4     6     6
 -0.9887158330     1     5     5     1
 -0.0404417062     1     5     5     2
 -0.0134859405     1     5     5     4
 0.0051700019     1     5     5     6
 0.0798837308     1     6     2     1
 0.0006953916     1     6     2     2
 0.0001182866     1     6     2     4
 -0.0029678026     1     6     3     3
 -0.0423179273     1     6     4     1
 -0.0043723433     1     6     4     2
 -0.0056243656     1     6     4     4
 -0.0051700019     1     6     5     5
 -0.2482729278     1     6     6     1
 -0.0007332061     1     6     6     2
 -0.0020117195     1     6     6     4
 -0.9848252693     2     1     1     2
 -0.0656654143     2     1     1     4
 0.0798837308     2     1     1     6
 0.0313897169     2     1     3     3
 -0.0071134486     2     1     4     2
 0.0359523952     2     1     4     4
 0.0040213552     2     1     4     6
 0.0404417062     2     1     5     5
 -0.0006953916     2     1     6     2
 0.0043723433     2     1     6     4
 0.0007332061     2     1     6     6
 0.9848252693     2     2     1     1
 0.0071134486     2     2     1     4
 0.0006953916     2     2     1     6
 0.5292170133     2     2     3     3
 0.0071134486     2     2     4     1
 0.5496487294     2     2     4     4
 0.0180179759     2     2     4     6
 0.5745467533     2     2     5     5
 0.0006953916     2     2     6     1
 0.0180179759     2     2     6     4
 0.2318831464     2     2     6     6
 -0.0313897169     2     3     3     1
 -0.5292170133     2     3     3     2
 -0.0012773723     2     3     3     4
 0.0375584821     2     3     3     6
 0.0000000001     2     3     6     6
 0.0656654143     2     4     1     1
 -0.0071134486     2     4     1     2
 0.0001182866     2     4     1     6
 0.0012773723     2     4     3     3
 -0.0359523952     2     4     4     1
 -0.5496487294     2     4     4     2
 0.0374652572     2     4     4     6
 0.0033450158     2     4     5     5
 -0.0043723433     2     4     6     1
 -0.0180179759     2     4     6     2
 -0.0094539814     2     4     6     6
 -0.0404417062     2     5     5     1
 -0.5745467533     2     5     5     2
 -0.0033450158     2     5     5     4
 0.0377425616     2     5     5     6
 -0.0798837308     2     6     1     1
 -0.0006953916     2     6     1     2
 -0.0001182866     2     6     1     4
 -0.0375584821     2     6     3     3
 -0.0040213552     2     6     4     1
 -0.0180179759     2     6     4     2
 -0.0374652572     2     6     4     4
 -0.0377425616     2     6     5     5
 -0.0007332061     2     6     6     1
 -0.2318831464     2     6     6     2
 -0.0000000001     2     6     6     3
 0.0094539814     2     6     6     4
 -0.8726397470     3     1     1     3
 -0.0313897169     3     1     2     3
 -0.0106030686     3     1     4     3
 0.0029678026     3     1     6     3
 -0.0313897169     3     2     1     3
 -0.5292170133     3     2     2     3
 -0.0012773723     3     2     4     3
 0.0375584821     3     2     6     3
 0.0000000001     3     2     6     6
 0.8726397470     3     3     1     1
 0.0313897169     3     3     1     2
 0.0106030686     3     3     1     4
 -0.0029678026     3     3     1     6
 0.0313897169     3     3     2     1
 0.5292170133     3     3     2     2
 0.0012773723     3     3     2     4
 -0.0375584821     3     3     2     6
 0.0106030686     3     3     4     1
 0.0012773723     3     3     4     2
 0.5622691808     3     3     4     4
 0.0208039351     3     3     4     6
 0.5834796931     3     3     5     5
 -0.0029678026     3     3     6     1
 -0.0375584821     3     3     6     2
 0.0208039351     3     3     6     4
 0.2335148556     3     3     6     6
 -0.0106030686     3     4     1     3
 -0.0012773723     3     4     2     3
 -0.5622691808     3     4     4     3
 -0.0208039351     3     4     6     3
 -0.5834796931     3     5     5     3
 0.0029678026     3     6     1     3
 0.0375584821     3     6     2     3
 -0.0208039351     3     6     4     3
 -0.0000000001     3     6     6     2
 -0.2335148556     3     6     6     3
 -0.0656654143     4     1     1     2
 -0.9471703774     4     1     1     4
 -0.0423179273     4     1     1     6
 0.0071134486     4     1     2     2
 -0.0359523952     4     1     2     4
 -0.0040213552     4     1     2     6
 0.0106030686     4     1     3     3
 0.0134859405     4     1     5     5
 -0.0001182866     4     1     6     2
 0.0056243656     4     1     6     4
 0.0020117195     4     1     6     6
 0.0656654143     4     2     1     1
 -0.0359523952     4     2     1     4
 -0.0043723433     4     2     1     6
 -0.0071134486     4     2     2     1
 -0.5496487294     4     2     2     4
 -0.0180179759     4     2     2     6
 0.0012773723     4     2     3     3
 0.0033450158     4     2     5     5
 0.0001182866     4     2     6     1
 0.0374652572     4     2     6     4
 -0.0094539814     4     2     6     6
 -0.0106030686     4     3     3     1
 -0.0012773723     4     3     3     2
 -0.5622691808     4     3     3     4
 -0.0208039351     4     3     3     6
 0.9471703774     4     4     1     1
 0.0359523952     4     4     1     2
 -0.0056243656     4     4     1     6
 0.0359523952     4     4     2     1
 0.5496487294     4     4     2     2
 -0.0374652572     4     4     2     6
 0.5622691808     4     4     3     3
 0.6002804267     4     4     5     5
 -0.0056243656     4     4     6     1
 -0.0374652572     4     4     6     2
 0.2241466982     4     4     6     6
 -0.0134859405     4     5     5     1
 -0.0033450158     4     5     5     2
 -0.6002804267     4     5     5     4
 -0.0238995148     4     5     5     6
 0.0423179273     4     6     1     1
 0.0043723433     4     6     1     2
 0.0056243656     4     6     1     4
 0.0040213552     4     6     2     1
 0.0180179759     4     6     2     2
 0.0374652572     4     6     2     4
 0.0208039351     4     6     3     3
 0.0238995148     4     6     5     5
 -0.0020117195     4     6     6     1
 0.0094539814     4     6     6     2
 -0.2241466982     4     6     6     4
 -0.9887158330     5     1     1     5
 -0.0404417062     5     1     2     5
 -0.0134859405     5     1     4     5
 0.0051700019     5     1     6     5
 -0.0404417062     5     2     1     5
 -0.5745467533     5     2     2     5
 -0.0033450158     5     2     4     5
 0.0377425616     5     2     6     5
 -0.5834796931     5     3     3     5
 -0.0134859405     5     4     1     5
 -0.0033450158     5     4     2     5
 -0.6002804267     5     4     4     5
 -0.0238995148     5     4     6     5
 0.9887158330     5     5     1     1
 0.0404417062     5     5     1     2
 0.0134859405     5     5     1     4
 -0.0051700019     5     5     1     6
 0.0404417062     5     5     2     1
 0.5745467533     5     5     2     2
 0.0033450158     5     5     2     4
 -0.0377425616     5     5     2     6
 0.5834796931     5     5     3     3
 0.0134859405     5     5     4     1
 0.0033450158     5     5     4     2
 0.6002804267     5     5     4     4
 0.0238995148     5     5     4     6
 -0.0051700019     5     5     6     1
 -0.0377425616     5     5     6     2
 0.0238995148     5     5     6     4
 0.2289992833     5     5     6     6
 0.0051700019     5     6     1     5
 0.0377425616     5     6     2     5
 -0.0238995148     5     6     4     5
 -0.2289992833     5     6     6     5
 0.0798837308     6     1     1     2
 -0.0423179273     6     1     1     4
 -0.2482729278     6     1     1     6
 0.0006953916     6     1     2     2
 -0.0043723433     6     1     2     4
 -0.0007332061     6     1     2     6
 -0.0029678026     6     1     3     3
 0.0001182866     6     1     4     2
 -0.0056243656     6     1     4     4
 -0.0020117195     6     1     4     6
 -0.0051700019     6     1     5     5
 -0.0798837308     6     2     1     1
 -0.0040213552     6     2     1     4
 -0.0007332061     6     2     1     6
 -0.0006953916     6     2     2     1
 -0.0180179759     6     2     2     4
 -0.2318831464     6     2     2     6
 -0.0375584821     6     2     3     3
 -0.0000000001     6     2     3     6
 -0.0001182866     6     2     4     1
 -0.0374652572     6     2     4     4
 0.0094539814     6     2     4     6
 -0.0377425616     6     2     5     5
 -0.0000000001     6     3     2     6
 0.0029678026     6     3     3     1
 0.0375584821     6     3     3     2
 -0.0208039351     6     3     3     4
 -0.2335148556     6     3     3     6
 0.0423179273     6     4     1     1
 0.0040213552     6     4     1     2
 -0.0020117195     6     4     1     6
 0.0043723433     6     4     2     1
 0.0180179759     6     4     2     2
 0.0094539814     6     4     2     6
 0.0208039351     6     4     3     3
 0.0056243656     6     4     4     1
 0.0374652572     6     4     4     2
 -0.2241466982     6     4     4     6
 0.0238995148     6     4     5     5
 0.0051700019     6     5     5     1
 0.0377425616     6     5     5     2
 -0.0238995148     6     5     5     4
 -0.2289992833     6     5     5     6
 0.2482729278     6     6     1     1
 0.0007332061     6     6     1     2
 0.0020117195     6     6     1     4
 0.0007332061     6     6     2     1
 0.2318831464     6     6     2     2
 0.0000000001     6     6     2     3
 -0.0094539814     6     6     2     4
 0.0000000001     6     6     3     2
 0.2335148556     6     6     3     3
 0.0020117195     6     6     4     1
 -0.0094539814     6     6     4     2
 0.2241466982     6     6     4     4
 0.2289992833     6     6     5     5
0.0 0 0 0 0
 0.9848252693     1     1     2     2
 0.0656654143     1     1     2     4
 -0.0798837308     1     1     2     6
 0.8726397470     1     1     3     3
 0.0656654143     1     1     4     2
 0.9471703774     1     1     4     4
 0.0423179273     1     1     4     6
 0.9887158330     1     1     5     5
 -0.0798837308     1     1     6     2
 0.0423179273     1     1     6     4
 0.2482729278     1     1     6     6
 -0.9848252693     1     2     2     1
 -0.0071134486     1     2     2     4
 -0.0006953916     1     2     2     6
 0.0313897169     1     2     3     3
 -0.0656654143     1     2     4     1
 0.0359523952     1     2     4     4
 0.0043723433     1     2     4     6
 0.0404417062     1     2     5     5
 0.0798837308     1     2     6     1
 0.0040213552     1     2     6     4
 0.0007332061     1     2     6     6
 -0.8726397470     1     3     3     1
 -0.0313897169     1     3     3     2
 -0.0106030686     1     3     3     4
 0.0029678026     1     3     3     6
 -0.0656654143     1     4     2     1
 0.0071134486     1     4     2     2
 -0.0001182866     1     4     2     6
 0.0106030686     1     4     3     3
 -0.9471703774     1     4     4     1
 -0.0359523952     1     4     4     2
 0.0056243656     1     4     4     6
 0.0134859405     1     4     5     5
 -0.0423179273     1     4     6     1
 -0.0040213552     1     4     6     2
 0.0020117195     1     4     6     6
 -0.9887158330     1     5     5     1
 -0.0404417062     1     5     5     2
 -0.0134859405     1     5     5     4
 0.0051700019     1     5     5     6
 0.0798837308     1     6     2     1
 0.0006953916     1     6     2     2
 0.0001182866     1     6     2     4
 -0.0029678026     1     6     3     3
 -0.0423179273     1     6     4     1
 -0.0043723433     1     6     4     2
 -0.0056243656     1     6     4     4
 -0.0051700019     1     6     5     5
 -0.2482729278     1     6     6     1
 -0.0007332061     1     6     6     2
 -0.0020117195     1     6     6     4
 -0.9848252693     2     1     1     2
 -0.0656654143     2     1     1     4
 0.0798837308     2     1     1     6
 0.0313897169     2     1     3     3
 -0.0071134486     2     1     4     2
 0.0359523952     2     1     4     4
 0.0040213552     2     1     4     6
 0.0404417062     2     1     5     5
 -0.0006953916     2     1     6     2
 0.0043723433     2     1     6     4
 0.0007332061     2     1     6     6
 0.9848252693     2     2     1     1
 0.0071134486     2     2     1     4
 0.0006953916     2     2     1     6
 0.5292170133     2     2     3     3
 0.0071134486     2     2     4     1
 0.5496487294     2     2     4     4
 0.0180179759     2     2     4     6
 0.5745467533     2     2     5     5
 0.0006953916     2     2     6     1
 0.0180179759     2     2     6     4
 0.2318831464     2     2     6     6
 -0.0313897169     2     3     3     1
 -0.5292170133     2     3     3     2
 -0.0012773723     2     3     3     4
 0.0375584821     2     3     3     6
 0.0000000001     2     3     6     6
 0.0656654143     2     4     1     1
 -0.0071134486     2     4     1     2
 0.0001182866     2     4     1     6
 0.0012773723     2     4     3     3
 -0.0359523952     2     4     4     1
 -0.5496487294     2     4     4     2
 0.0374652572     2     4     4     6
 0.0033450158     2     4     5     5
 -0.0043723433     2     4     6     1
 -0.0180179759     2     4     6     2
 -0.0094539814     2     4     6     6
 -0.0404417062     2     5     5     1
 -0.5745467533     2     5     5     2
 -0.0033450158     2     5     5     4
 0.0377425616     2     5     5     6
 -0.0798837308     2     6     1     1
 -0.0006953916     2     6     1     2
 -0.0001182866     2     6     1     4
 -0.0375584821     2     6     3     3
 -0.0040213552     2     6     4     1
 -0.0180179759     2     6     4     2
 -0.0374652572     2     6     4     4
 -0.0377425616     2     6     5     5
 -0.0007332061     2     6     6     1
 -0.2318831464     2     6     6     2
 -0.0000000001     2     6     6     3
 0.0094539814     2     6     6     4
 -0.8726397470     3     1     1     3
 -0.0313897169     3     1     2     3
 -0.0106030686     3     1     4     3
 0.0029678026     3     1     6     3
 -0.0313897169     3     2     1     3
 -0.5292170133     3     2     2     3
 -0.0012773723     3     2     4     3
 0.0375584821     3     2     6     3
 0.0000000001     3     2     6     6
 0.8726397470     3     3     1     1
 0.0313897169     3     3     1     2
 0.0106030686     3     3     1     4
 -0.0029678026     3     3     1     6
 0.0313897169     3     3     2     1
 0.5292170133     3     3     2     2
 0.0012773723     3     3     2     4
 -0.0375584821     3     3     2     6
 0.0106030686     3     3     4     1
 0.0012773723     3     3     4     2
 0.5622691808     3     3     4     4
 0.0208039351     3     3     4     6
 0.5834796931     3     3     5     5
 -0.0029678026     3     3     6     1
 -0.0375584821     3     3     6     2
 0.0208039351     3     3     6     4
 0.2335148556     3     3     6     6
 -0.0106030686     3     4     1     3
 -0.0012773723     3     4     2     3
 -0.5622691808     3     4     4     3
 -0.0208039351     3     4     6     3
 -0.5834796931     3     5     5     3
 0.0029678026     3     6     1     3
 0.0375584821     3     6     2     3
 -0.0208039351     3     6     4     3
 -0.0000000001     3     6     6     2
 -0.2335148556     3     6     6     3
 -0.0656654143     4     1     1     2
 -0.9471703774     4     1     1     4
 -0.0423179273     4     1     1     6
 0.0071134486     4     1     2     2
 -0.0359523952     4     1     2     4
 -0.0040213552     4     1     2     6
 0.0106030686     4     1     3     3
 0.0134859405     4     1     5     5
 -0.0001182866     4     1     6     2
 0.0056243656     4     1     6     4
 0.0020117195     4     1     6     6
 0.0656654143     4     2     1     1
 -0.0359523952     4     2     1     4
 -0.0043723433     4     2     1     6
 -0.0071134486     4     2     2     1
 -0.5496487294     4     2     2     4
 -0.0180179759     4     2     2     6
 0.0012773723     4     2     3     3
 0.0033450158     4     2     5     5
 0.0001182866     4     2     6     1
 0.0374652572     4     2     6     4
 -0.0094539814     4     2     6     6
 -0.0106030686     4     3     3     1
 -0.0012773723     4     3     3     2
 -0.5622691808     4     3     3     4
 -0.0208039351     4     3     3     6
 0.9471703774     4     4     1     1
 0.0359523952     4     4     1     2
 -0.0056243656     4     4     1     6
 0.0359523952     4     4     2     1
 0.5496487294     4     4     2     2
 -0.0374652572     4     4     2     6
 0.5622691808     4     4     3     3
 0.6002804267     4     4     5     5
 -0.0056243656     4     4     6     1
 -0.0374652572     4     4     6     2
 0.2241466982     4     4     6     6
 -0.0134859405     4     5     5     1
 -0.0033450158     4     5     5     2
 -0.6002804267     4     5     5     4
 -0.0238995148     4     5     5     6
 0.0423179273     4     6     1     1
 0.0043723433     4     6     1     2
 0.0056243656     4     6     1     4
 0.0040213552     4     6     2     1
 0.0180179759     4     6     2     2
 0.0374652572     4     6     2     4
 0.0208039351     4     6     3     3
 0.0238995148     4     6     5     5
 -0.0020117195     4     6     6     1
 0.0094539814     4     6     6     2
 -0.2241466982     4     6     6     4
 -0.9887158330     5     1     1     5
 -0.0404417062     5     1     2     5
 -0.0134859405     5     1     4     5
 0.0051700019     5     1     6     5
 -0.0404417062     5     2     1     5
 -0.5745467533     5     2     2     5
 -0.0033450158     5     2     4     5
 0.0377425616     5     2     6     5
 -0.5834796931     5     3     3     5
 -0.0134859405     5     4     1     5
 -0.0033450158     5     4     2     5
 -0.6002804267     5     4     4     5
 -0.0238995148     5     4     6     5
 0.9887158330     5     5     1     1
 0.0404417062     5     5     1     2
 0.0134859405     5     5     1     4
 -0.0051700019     5     5     1     6
 0.0404417062     5     5     2     1
 0.5745467533     5     5     2     2
 0.0033450158     5     5     2     4
 -0.0377425616     5     5     2     6
 0.5834796931     5     5     3     3
 0.0134859405     5     5     4     1
 0.0033450158     5     5     4     2
 0.6002804267     5     5     4     4
 0.0238995148     5     5     4     6
 -0.0051700019     5     5     6     1
 -0.0377425616     5     5     6     2
 0.0238995148     5     5     6     4
 0.2289992833     5     5     6     6
 0.0051700019     5     6     1     5
 0.0377425616     5     6     2     5
 -0.0238995148     5     6     4     5
 -0.2289992833     5     6     6     5
 0.0798837308     6     1     1     2
 -0.0423179273     6     1     1     4
 -0.2482729278     6     1     1     6
 0.0006953916     6     1     2     2
 -0.0043723433     6     1     2     4
 -0.0007332061     6     1     2     6
 -0.0029678026     6     1     3     3
 0.0001182866     6     1     4     2
 -0.0056243656     6     1     4     4
 -0.0020117195     6     1     4     6
 -0.0051700019     6     1     5     5
 -0.0798837308     6     2     1     1
 -0.0040213552     6     2     1     4
 -0.0007332061     6     2     1     6
 -0.0006953916     6     2     2     1
 -0.0180179759     6     2     2     4
 -0.2318831464     6     2     2     6
 -0.0375584821     6     2     3     3
 -0.0000000001     6     2     3     6
 -0.0001182866     6     2     4     1
 -0.0374652572     6     2     4     4
 0.0094539814     6     2     4     6
 -0.0377425616     6     2     5     5
 -0.0000000001     6     3     2     6
 0.0029678026     6     3     3     1
 0.0375584821     6     3     3     2
 -0.0208039351     6     3     3     4
 -0.2335148556     6     3     3     6
 0.0423179273     6     4     1     1
 0.0040213552     6     4     1     2
 -0.0020117195     6     4     1     6
 0.0043723433     6     4     2     1
 0.0180179759     6     4     2     2
 0.0094539814     6     4     2     6
 0.0208039351     6     4     3     3
 0.0056243656     6     4     4     1
 0.0374652572     6     4     4     2
 -0.2241466982     6     4     4     6
 0.0238995148     6     4     5     5
 0.0051700019     6     5     5     1
 0.0377425616     6     5     5     2
 -0.0238995148     6     5     5     4
 -0.2289992833     6     5     5     6
 0.2482729278     6     6     1     1
 0.0007332061     6     6     1     2
 0.0020117195     6     6     1     4
 0.0007332061     6     6     2     1
 0.2318831464     6     6     2     2
 0.0000000001     6     6     2     3
 -0.0094539814     6     6     2     4
 0.0000000001     6     6     3     2
 0.2335148556     6     6     3     3
 0.0020117195     6     6     4     1
 -0.0094539814     6     6     4     2
 0.2241466982     6     6     4     4
 0.2289992833     6     6     5     5
0.0 0 0 0 0
 4.7101799368     1     1     1     1
 0.4269573894     1     1     1     2
 0.1348481738     1     1     1     4
 -0.0770146696     1     1     1     6
 0.4269573894     1     1     2     1
 1.0481428547     1     1     2     2
 0.0815031406     1     1     2     4
 -0.0931621541     1     1     2     6
 0.8939029016     1     1     3     3
 0.1348481738     1     1     4     1
 0.0815031406     1     1     4     2
 0.9778587306     1     1     4     4
 0.0429927537     1     1     4     6
 1.0190278625     1     1     5     5
 -0.0770146696     1     1     6     1
 -0.0931621541     1     1     6     2
 0.0429927537     1     1     6     4
 0.2511348289     1     1     6     6
 0.4269573894     1     2     1     1
 0.0593945496     1     2     1     2
 0.0159280680     1     2     1     4
 -0.0125230024     1     2     1     6
 0.0633175854     1     2     2     1
 0.0147139126     1     2     2     2
 0.0073972555     1     2     2     4
 -0.0013568430     1     2     2     6
 0.0076091297     1     2     3     3
 0.0158377263     1     2     4     1
 0.0076699945     1     2     4     2
 0.0134387605     1     2     4     4
 -0.0005859683     1     2     4     6
 0.0121385302     1     2     5     5
 -0.0132784233     1     2     6     1
 -0.0005835023     1     2     6     2
 -0.0007540293     1     2     6     4
 0.0004046687     1     2     6     6
 0.0165407753     1     3     1     3
 -0.0229230106     1     3     2     3
 0.0212631546     1     3     3     1
 -0.0237805872     1     3     3     2
 -0.0030535629     1     3     3     4
 0.0026722517     1     3     3     6
 -0.0026351316     1     3     4     3
 0.0025377651     1     3     6     3
 0.1348481738     1     4     1     1
 0.0159280680     1     4     1     2
 0.0256128288     1     4     1     4
 0.0004015413     1     4     1     6
 0.0158377263     1     4     2     1
 0.0145107041     1     4     2     2
 -0.0218189164     1     4     2     4
 -0.0048842868     1     4     2     6
 0.0075495057     1     4     3     3
 0.0306883532     1     4     4     1
 -0.0225136347     1     4     4     2
 -0.0079375217     1     4     4     4
 0.0018782128     1     4     4     6
 0.0047795934     1     4     5     5
 0.0006748264     1     4     6     1
 -0.0047753845     1     4     6     2
 0.0015749190     1     4     6     4
 0.0023711222     1     4     6     6
 0.0248652236     1     5     1     5
 -0.0279851458     1     5     2     5
 -0.0083916170     1     5     4     5
 0.0303120295     1     5     5     1
 -0.0283031760     1     5     5     2
 -0.0087063471     1     5     5     4
 0.0037961190     1     5     5     6
 0.0033493322     1     5     6     5
 -0.0770146696     1     6     1     1
 -0.0125230024     1     6     1     2
 0.0004015413     1     6     1     4
 0.0031541644     1     6     1     6
 -0.0132784233     1     6     2     1
 -0.0006614514     1     6     2     2
 -0.0047660002     1     6     2     4
 -0.0005455978     1     6     2     6
 -0.0002955509     1     6     3     3
 0.0006748264     1     6     4     1
 -0.0049583116     1     6     4     2
 -0.0037461528     1     6     4     4
 0.0005976822     1     6     4     6
 -0.0013738829     1     6     5     5
 0.0028619011     1     6     6     1
 -0.0003285374     1     6     6     2
 0.0003594027     1     6     6     4
 0.0002245045     1     6     6     6
 0.4269573894     2     1     1     1
 0.0633175854     2     1     1     2
 0.0158377263     2     1     1     4
 -0.0132784233     2     1     1     6
 0.0593945496     2     1     2     1
 0.0147139126     2     1     2     2
 0.0076699945     2     1     2     4
 -0.0005835023     2     1     2     6
 0.0076091297     2     1     3     3
 0.0159280680     2     1     4     1
 0.0073972555     2     1     4     2
 0.0134387605     2     1     4     4
 -0.0007540293     2     1     4     6
 0.0121385302     2     1     5     5
 -0.0125230024     2     1     6     1
 -0.0013568430     2     1     6     2
 -0.0005859683     2     1     6     4
 0.0004046687     2     1     6     6
 1.0481428547     2     2     1     1
 0.0147139126     2     2     1     2
 0.0145107041     2     2     1     4
 -0.0006614514     2     2     1     6
 0.0147139126     2     2     2     1
 0.7434354596     2     2     2     2
 -0.0176108412     2     2     2     4
 -0.0556908835     2     2     2     6
 0.6747967326     2     2     3     3
 0.0145107041     2     2     4     1
 -0.0176108412     2     2     4     2
 0.6663039050     2     2     4     4
 0.0289950108     2     2     4     6
 0.6928566489     2     2     5     5
 -0.0006614514     2     2     6     1
 -0.0556908835     2     2     6     2
 0.0289950108     2     2     6     4
 0.2417295807     2     2     6     6
 -0.0229230106     2     3     1     3
 0.1402392696     2     3     2     3
 -0.0237805872     2     3     3     1
 0.1455797193     2     3     3     2
 -0.0132533460     2     3     3     4
 -0.0043756162     2     3     3     6
 -0.0137827275     2     3     4     3
 -0.0045143234     2     3     6     3
 0.0000000001     2     3     6     6
 0.0815031406     2     4     1     1
 0.0073972555     2     4     1     2
 -0.0218189164     2     4     1     4
 -0.0047660002     2     4     1     6
 0.0076699945     2     4     2     1
 -0.0176108412     2     4     2     2
 0.1115312831     2     4     2     4
 0.0105961472     2     4     2     6
 -0.0119759737     2     4     3     3
 -0.0225136347     2     4     4     1
 0.1166551756     2     4     4     2
 0.0610441044     2     4     4     4
 -0.0001905489     2     4     4     6
 0.0298765481     2     4     5     5
 -0.0049583116     2     4     6     1
 0.0109770349     2     4     6     2
 -0.0006629855     2     4     6     4
 -0.0148543671     2     4     6     6
 -0.0279851458     2     5     1     5
 0.1140669221     2     5     2     5
 0.0267889386     2     5     4     5
 -0.0283031760     2     5     5     1
 0.1183098956     2     5     5     2
 0.0265315323     2     5     5     4
 -0.0098191127     2     5     5     6
 -0.0097228885     2     5     6     5
 -0.0931621541     2     6     1     1
 -0.0013568430     2     6     1     2
 -0.0048842868     2     6     1     4
 -0.0005455978     2     6     1     6
 -0.0005835023     2     6     2     1
 -0.0556908835     2     6     2     2
 0.0105961472     2     6     2     4
 0.0132984386     2     6     2     6
 -0.0419340983     2     6     3     3
 -0.0047753845     2     6     4     1
 0.0109770349     2     6     4     2
 -0.0376558061     2     6     4     4
 -0.0078095813     2     6     4     6
 -0.0475616743     2     6     5     5
 -0.0003285374     2     6     6     1
 0.0098464343     2     6     6     2
 -0.0054003857     2     6     6     4
 -0.0029783248     2     6     6     6
 0.0212631546     3     1     1     3
 -0.0237805872     3     1     2     3
 0.0165407753     3     1     3     1
 -0.0229230106     3     1     3     2
 -0.0026351316     3     1     3     4
 0.0025377651     3     1     3     6
 -0.0030535629     3     1     4     3
 0.0026722517     3     1     6     3
 -0.0237805872     3     2     1     3
 0.1455797193     3     2     2     3
 -0.0229230106     3     2     3     1
 0.1402392696     3     2     3     2
 -0.0137827275     3     2     3     4
 -0.0045143234     3     2     3     6
 -0.0132533460     3     2     4     3
 -0.0043756162     3     2     6     3
 0.0000000001     3     2     6     6
 0.8939029016     3     3     1     1
 0.0076091297     3     3     1     2
 0.0075495057     3     3     1     4
 -0.0002955509     3     3     1     6
 0.0076091297     3     3     2     1
 0.6747967326     3     3     2     2
 -0.0119759737     3     3     2     4
 -0.0419340983     3     3     2     6
 0.6498623653     3     3     3     3
 0.0075495057     3     3     4     1
 -0.0119759737     3     3     4     2
 0.5976278647     3     3     4     4
 0.0204909433     3     3     4     6
 0.6104935774     3     3     5     5
 -0.0002955509     3     3     6     1