&FCI NORB= 16,NELEC= 10,MS2=0,
 ORBSYM=1,1,1,1,1,1,1,1,1,1,1,1,1,1,1,1
 ISYM=1,
&END
 1.0018229616     1     1     2     2
 -0.0541331310     1     1     2     3
 0.0565785721     1     1     2     5
 -0.0842219412     1     1     2     6
 0.0977385722     1     1     2     7
 0.0164381306     1     1     2     8
 0.0646066427     1     1     2     9
 0.0396510616     1     1     2    10
 0.0584721656     1     1     2    12
 -0.0922221415     1     1     2    14
 -0.1242030220     1     1     2    16
 -0.0541331310     1     1     3     2
 0.9017678295     1     1     3     3
 -0.0734989093     1     1     3     5
 0.0676494409     1     1     3     6
 0.1212455508     1     1     3     7
 -0.0132002502     1     1     3     8
 -0.0102587076     1     1     3     9
 0.2348455072     1     1     3    10
 -0.0480284638     1     1     3    12
 -0.0622874712     1     1     3    14
 0.0240209252     1     1     3    16
 1.0150691999     1     1     4     4
 0.2027392102     1     1     4    11
 -0.2187431829     1     1     4    13
 -0.0660412651     1     1     4    15
 0.0565785721     1     1     5     2
 -0.0734989093     1     1     5     3
 0.7437651330     1     1     5     5
 0.2785301082     1     1     5     6
 0.0477914971     1     1     5     7
 -0.0634905925     1     1     5     8
 0.0423781777     1     1     5     9
 -0.1046630417     1     1     5    10
 -0.0633136284     1     1     5    12
 -0.1917351328     1     1     5    14
 0.0833223778     1     1     5    16
 -0.0842219412     1     1     6     2
 0.0676494409     1     1     6     3
 0.2785301082     1     1     6     5
 0.5019668864     1     1     6     6
 0.0293488025     1     1     6     7
 -0.1135063198     1     1     6     8
 0.0067324205     1     1     6     9
 -0.0335382705     1     1     6    10
 -0.0933251714     1     1     6    12
 -0.1420904337     1     1     6    14
 0.1612537745     1     1     6    16
 0.0977385722     1     1     7     2
 0.1212455508     1     1     7     3
 0.0477914971     1     1     7     5
 0.0293488025     1     1     7     6
 0.3118287623     1     1     7     7
 -0.0280215916     1     1     7     8
 0.0446556281     1     1     7     9
 0.1069940801     1     1     7    10
 -0.0000718644     1     1     7    12
 -0.1076575978     1     1     7    14
 -0.0233827130     1     1     7    16
 0.0164381306     1     1     8     2
 -0.0132002502     1     1     8     3
 -0.0634905925     1     1     8     5
 -0.1135063198     1     1     8     6
 -0.0280215916     1     1     8     7
 0.2543732141     1     1     8     8
 -0.0096546373     1     1     8     9
 0.0120976162     1     1     8    10
 0.0102963851     1     1     8    12
 0.0305252198     1     1     8    14
 -0.0606454894     1     1     8    16
 0.0646066427     1     1     9     2
 -0.0102587076     1     1     9     3
 0.0423781777     1     1     9     5
 0.0067324205     1     1     9     6
 0.0446556281     1     1     9     7
 -0.0096546373     1     1     9     8
 0.3470809495     1     1     9     9
 0.0236404662     1     1     9    10
 0.0164206355     1     1     9    12
 -0.0526332390     1     1     9    14
 -0.0017187275     1     1     9    16
 0.0396510616     1     1    10     2
 0.2348455072     1     1    10     3
 -0.1046630417     1     1    10     5
 -0.0335382705     1     1    10     6
 0.1069940801     1     1    10     7
 0.0120976162     1     1    10     8
 0.0236404662     1     1    10     9
 0.4994294543     1     1    10    10
 0.0110256415     1     1    10    12
 0.0023669449     1     1    10    14
 -0.0313143236     1     1    10    16
 0.2027392102     1     1    11     4
 0.3853642909     1     1    11    11
 -0.1142125340     1     1    11    13
 -0.0493233881     1     1    11    15
 0.0584721656     1     1    12     2
 -0.0480284638     1     1    12     3
 -0.0633136284     1     1    12     5
 -0.0933251714     1     1    12     6
 -0.0000718644     1     1    12     7
 0.0102963851     1     1    12     8
 0.0164206355     1     1    12     9
 0.0110256415     1     1    12    10
 0.3516136057     1     1    12    12
 0.0531689415     1     1    12    14
 -0.0508856469     1     1    12    16
 -0.2187431829     1     1    13     4
 -0.1142125340     1     1    13    11
 0.4439845216     1     1    13    13
 0.0105015007     1     1    13    15
 -0.0922221415     1     1    14     2
 -0.0622874712     1     1    14     3
 -0.1917351328     1     1    14     5
 -0.1420904337     1     1    14     6
 -0.1076575978     1     1    14     7
 0.0305252198     1     1    14     8
 -0.0526332390     1     1    14     9
 0.0023669449     1     1    14    10
 0.0531689415     1     1    14    12
 0.4966847171     1     1    14    14
 -0.0515631367     1     1    14    16
 -0.0660412651     1     1    15     4
 -0.0493233881     1     1    15    11
 0.0105015007     1     1    15    13
 0.3500031672     1     1    15    15
 -0.1242030220     1     1    16     2
 0.0240209252     1     1    16     3
 0.0833223778     1     1    16     5
 0.1612537745     1     1    16     6
 -0.0233827130     1     1    16     7
 -0.0606454894     1     1    16     8
 -0.0017187275     1     1    16     9
 -0.0313143236     1     1    16    10
 -0.0508856469     1     1    16    12
 -0.0515631367     1     1    16    14
 0.3962227232     1     1    16    16
 -1.0018229616     1     2     2     1
 -0.0062329153     1     2     2     3
 0.0007983266     1     2     2     5
 -0.0006123230     1     2     2     6
 -0.0020388526     1     2     2     7
 0.0001944309     1     2     2     8
 -0.0002170174     1     2     2     9
 -0.0048075651     1     2     2    10
 0.0005889683     1     2     2    12
 0.0015703278     1     2     2    14
 -0.0000316171     1     2     2    16
 0.0541331310     1     2     3     1
 -0.0339456926     1     2     3     3
 0.0042856068     1     2     3     5
 -0.0032021879     1     2     3     6
 -0.0097004795     1     2     3     7
 0.0010862126     1     2     3     8
 -0.0015898176     1     2     3     9
 -0.0208615109     1     2     3    10
 0.0025953188     1     2     3    12
 0.0070270449     1     2     3    14
 -0.0007592429     1     2     3    16
 -0.0435191719     1     2     4     4
 -0.0163784162     1     2     4    11
 0.0190880785     1     2     4    13
 0.0052104808     1     2     4    15
 -0.0565785721     1     2     5     1
 0.0037031574     1     2     5     3
 -0.0257851287     1     2     5     5
 -0.0171571300     1     2     5     6
 -0.0021956854     1     2     5     7
 0.0054103229     1     2     5     8
 -0.0026137980     1     2     5     9
 0.0081500548     1     2     5    10
 0.0064305989     1     2     5    12
 0.0150861196     1     2     5    14
 -0.0096785611     1     2     5    16
 0.0842219412     1     2     6     1
 -0.0021745339     1     2     6     3
 -0.0148928175     1     2     6     5
 -0.0132496820     1     2     6     6
 -0.0031210983     1     2     6     7
 0.0042289574     1     2     6     8
 -0.0019468374     1     2     6     9
 0.0026099977     1     2     6    10
 0.0051037725     1     2     6    12
 0.0119851236     1     2     6    14
 -0.0073711570     1     2     6    16
 -0.0977385722     1     2     7     1
 -0.0083099652     1     2     7     3
 -0.0016218949     1     2     7     5
 -0.0032359703     1     2     7     6
 -0.0030293669     1     2     7     7
 0.0010611792     1     2     7     8
 -0.0008017562     1     2     7     9
 -0.0051322302     1     2     7    10
 0.0014967930     1     2     7    12
 0.0041603649     1     2     7    14
 -0.0013853592     1     2     7    16
 -0.0164381306     1     2     8     1
 0.0007051095     1     2     8     3
 0.0044722378     1     2     8     5
 0.0040391579     1     2     8     6
 0.0009770960     1     2     8     7
 -0.0014269417     1     2     8     8
 0.0007067397     1     2     8     9
 -0.0008419432     1     2     8    10
 -0.0015500517     1     2     8    12
 -0.0037005578     1     2     8    14
 0.0023009568     1     2     8    16
 -0.0646066427     1     2     9     1
 -0.0013276212     1     2     9     3
 -0.0019182155     1     2     9     5
 -0.0016904420     1     2     9     6
 -0.0007588009     1     2     9     7
 0.0006531952     1     2     9     8
 -0.0005133632     1     2     9     9
 0.0001557749     1     2     9    10
 0.0005411126     1     2     9    12
 0.0016782260     1     2     9    14
 -0.0007640944     1     2     9    16
 -0.0396510616     1     2    10     1
 -0.0155641411     1     2    10     3
 0.0065164689     1     2    10     5
 0.0018700277     1     2    10     6
 -0.0043049110     1     2    10     7
 -0.0006440442     1     2    10     8
 0.0003068941     1     2    10     9
 -0.0125129768     1     2    10    10
 0.0003760942     1     2    10    12
 0.0001592302     1     2    10    14
 0.0014684543     1     2    10    16
 -0.0124727383     1     2    11     4
 -0.0060429401     1     2    11    11
 0.0066462839     1     2    11    13
 0.0019656797     1     2    11    15
 -0.0584721656     1     2    12     1
 0.0016411908     1     2    12     3
 0.0046573304     1     2    12     5
 0.0043438127     1     2    12     6
 0.0011843238     1     2    12     7
 -0.0013751052     1     2    12     8
 0.0005052470     1     2    12     9
 0.0002049766     1     2    12    10
 -0.0018029900     1     2    12    12
 -0.0037638870     1     2    12    14
 0.0023721369     1     2    12    16
 0.0139006011     1     2    13     4
 0.0063359543     1     2    13    11
 -0.0071213401     1     2    13    13
 -0.0024383132     1     2    13    15
 0.0922221415     1     2    14     1
 0.0055972644     1     2    14     3
 0.0109422791     1     2    14     5
 0.0104800668     1     2    14     6
 0.0037882582     1     2    14     7
 -0.0033846837     1     2    14     8
 0.0016508908     1     2    14     9
 0.0006449633     1     2    14    10
 -0.0039832370     1     2    14    12
 -0.0102892024     1     2    14    14
 0.0056317761     1     2    14    16
 0.0041917486     1     2    15     4
 0.0020806495     1     2    15    11
 -0.0026753761     1     2    15    13
 -0.0006135886     1     2    15    15
 0.1242030220     1     2    16     1
 0.0003777858     1     2    16     3
 -0.0073609791     1     2    16     5
 -0.0063389194     1     2    16     6
 -0.0009153664     1     2    16     7
 0.0020706414     1     2    16     8
 -0.0007519855     1     2    16     9
 0.0022654231     1     2    16    10
 0.0023613303     1     2    16    12
 0.0054537899     1     2    16    14
 -0.0039299603     1     2    16    16
 0.0541331310     1     3     2     1
 0.0062329153     1     3     2     2
 0.0005816572     1     3     2     5
 -0.0008987178     1     3     2     6
 -0.0007588512     1     3     2     7
 0.0003357409     1     3     2     8
 -0.0001738713     1     3     2     9
 -0.0041024346     1     3     2    10
 0.0008077852     1     3     2    12
 0.0009956092     1     3     2    14
 -0.0011590695     1     3     2    16
 -0.9017678295     1     3     3     1
 0.0339456926     1     3     3     2
 0.0027615218     1     3     3     5
 -0.0036262451     1     3     3     6
 0.0048436109     1     3     3     7
 0.0009784190     1     3     3     8
 0.0005003025     1     3     3     9
 0.0016483558     1     3     3    10
 0.0018091381     1     3     3    12
 -0.0055322763     1     3     3    14
 -0.0075294092     1     3     3    16
 0.0117980029     1     3     4     4
 0.0049165586     1     3     4    11
 -0.0031101590     1     3     4    13
 -0.0041669302     1     3     4    15
 0.0734989093     1     3     5     1
 -0.0037031574     1     3     5     2
 0.0063565485     1     3     5     5
 0.0062532633     1     3     5     6
 0.0004996803     1     3     5     7
 -0.0025948312     1     3     5     8
 -0.0004354013     1     3     5     9
 -0.0017211891     1     3     5    10
 -0.0002305100     1     3     5    12
 -0.0035538749     1     3     5    14
 0.0048320416     1     3     5    16
 -0.0676494409     1     3     6     1
 0.0021745339     1     3     6     2
 0.0044991854     1     3     6     5
 0.0025926783     1     3     6     6
 0.0004389766     1     3     6     7
 -0.0011501423     1     3     6     8
 0.0005779976     1     3     6     9
 -0.0014728474     1     3     6    10
 0.0000607936     1     3     6    12
 -0.0025349206     1     3     6    14
 0.0017736056     1     3     6    16
 -0.1212455508     1     3     7     1
 0.0083099652     1     3     7     2
 0.0015794498     1     3     7     5
 -0.0010691263     1     3     7     6
 0.0039805533     1     3     7     7
 0.0001931469     1     3     7     8
 0.0009520700     1     3     7     9
 0.0026958129     1     3     7    10
 0.0002472927     1     3     7    12
 -0.0027969335     1     3     7    14
 -0.0021330629     1     3     7    16
 0.0132002502     1     3     8     1
 -0.0007051095     1     3     8     2
 -0.0014048784     1     3     8     5
 -0.0006402019     1     3     8     6
 -0.0001638924     1     3     8     7
 -0.0004154013     1     3     8     8
 0.0004062751     1     3     8     9
 -0.0001801548     1     3     8    10
 -0.0001497932     1     3     8    12
 0.0004647360     1     3     8    14
 -0.0001346814     1     3     8    16
 0.0102587076     1     3     9     1
 0.0013276212     1     3     9     2
 0.0002293720     1     3     9     5
 0.0008348731     1     3     9     6
 0.0011855861     1     3     9     7
 0.0002503908     1     3     9     8
 0.0002553071     1     3     9     9
 0.0039483381     1     3     9    10
 -0.0007375301     1     3     9    12
 -0.0027357361     1     3     9    14
 0.0004747921     1     3     9    16
 -0.2348455072     1     3    10     1
 0.0155641411     1     3    10     2
 0.0003364257     1     3    10     5
 -0.0041007028     1     3    10     6
 0.0051853218     1     3    10     7
 0.0007258118     1     3    10     8
 0.0041980276     1     3    10     9
 0.0049132825     1     3    10    10
 0.0033991016     1     3    10    12
 -0.0040529795     1     3    10    14
 -0.0060317886     1     3    10    16
 0.0033175219     1     3    11     4
 0.0005438804     1     3    11    11
 -0.0016866574     1     3    11    13
 -0.0006935801     1     3    11    15
 0.0480284638     1     3    12     1
 -0.0016411908     1     3    12     2
 -0.0012922531     1     3    12     5
 -0.0009997827     1     3    12     6
 -0.0008471591     1     3    12     7
 0.0003836468     1     3    12     8
 -0.0008562366     1     3    12     9
 0.0025130236     1     3    12    10
 0.0002794060     1     3    12    12
 0.0026116642     1     3    12    14
 -0.0008614589     1     3    12    16
 -0.0040955713     1     3    13     4
 -0.0028284161     1     3    13    11
 0.0043358935     1     3    13    13
 -0.0010001946     1     3    13    15
 0.0622874712     1     3    14     1
 -0.0055972644     1     3    14     2
 -0.0038723794     1     3    14     5
 -0.0015360794     1     3    14     6
 -0.0023046410     1     3    14     7
 0.0005992805     1     3    14     8
 -0.0021632769     1     3    14     9
 -0.0010837973     1     3    14    10
 0.0008583256     1     3    14    12
 0.0048370715     1     3    14    14
 0.0006385021     1     3    14    16
 -0.0009164740     1     3    15     4
 0.0004082785     1     3    15    11
 -0.0026385948     1     3    15    13
 0.0011151431     1     3    15    15
 -0.0240209252     1     3    16     1
 -0.0003777858     1     3    16     2
 0.0020155850     1     3    16     5
 0.0015854002     1     3    16     6
 -0.0000002136     1     3    16     7
 -0.0003619432     1     3    16     8
 0.0004696464     1     3    16     9
 -0.0009163435     1     3    16    10
 -0.0004484798     1     3    16    12
 -0.0002020650     1     3    16    14
 0.0005291898     1     3    16    16
 -0.0029431777     1     4     2    11
 0.0041274433     1     4     2    13
 0.0007046548     1     4     2    15
 0.0014070594     1     4     3    11
 0.0012730488     1     4     3    13
 -0.0032275935     1     4     3    15
 -1.0150691999     1     4     4     1
 0.0435191719     1     4     4     2
 -0.0117980029     1     4     4     3
 0.0050990910     1     4     4     5
 -0.0066591711     1     4     4     6
 0.0050919623     1     4     4     7
 0.0020673854     1     4     4     8
 0.0067879918     1     4     4     9
 0.0003671362     1     4     4    10
 0.0064505930     1     4     4    12
 -0.0073346706     1     4     4    14
 -0.0094971546     1     4     4    16
 0.0013168343     1     4     5    11
 0.0010053657     1     4     5    13
 0.0013989839     1     4     5    15
 -0.0002898217     1     4     6    11
 0.0007481608     1     4     6    13
 0.0002539726     1     4     6    15
 0.0010126759     1     4     7    11
 -0.0013021363     1     4     7    13
 -0.0005199800     1     4     7    15
 -0.0006841885     1     4     8    11
 0.0003029708     1     4     8    13
 0.0004608683     1     4     8    15
 -0.0003886262     1     4     9    11
 0.0007429395     1     4     9    13
 0.0003007426     1     4     9    15
 -0.0005043466     1     4    10    11
 0.0006939460     1     4    10    13
 0.0004630742     1     4    10    15
 -0.2027392102     1     4    11     1
 0.0124727383     1     4    11     2
 -0.0033175219     1     4    11     3
 0.0022303732     1     4    11     5
 -0.0035682388     1     4    11     6
 0.0027027180     1     4    11     7
 0.0003488493     1     4    11     8
 0.0021163240     1     4    11     9
 -0.0003712612     1     4    11    10
 0.0024898253     1     4    11    12
 -0.0022048532     1     4    11    14
 -0.0057779236     1     4    11    16
 -0.0002843259     1     4    12    11
 0.0003804812     1     4    12    13
 -0.0002123784     1     4    12    15
 0.2187431829     1     4    13     1
 -0.0139006011     1     4    13     2
 0.0040955713     1     4    13     3
 -0.0016749534     1     4    13     5
 0.0029559773     1     4    13     6
 -0.0042954941     1     4    13     7
 -0.0003801852     1     4    13     8
 -0.0024336340     1     4    13     9
 -0.0006428919     1     4    13    10
 -0.0021153247     1     4    13    12
 0.0044307199     1     4    13    14
 0.0052328337     1     4    13    16
 -0.0001084887     1     4    14    11
 0.0002198435     1     4    14    13
 0.0002315175     1     4    14    15
 0.0660412651     1     4    15     1
 -0.0041917486     1     4    15     2
 0.0009164740     1     4    15     3
 -0.0004216408     1     4    15     5
 0.0007085608     1     4    15     6
 -0.0004561309     1     4    15     7
 0.0003156197     1     4    15     8
 -0.0005715077     1     4    15     9
 0.0023337211     1     4    15    10
 -0.0010320805     1     4    15    12
 0.0011298556     1     4    15    14
 0.0014257325     1     4    15    16
 -0.0017715162     1     4    16    11
 0.0013678468     1     4    16    13
 0.0005699678     1     4    16    15
 -0.0565785721     1     5     2     1
 -0.0007983266     1     5     2     2
 -0.0005816572     1     5     2     3
 -0.0011531969     1     5     2     6
 -0.0004588759     1     5     2     7
 0.0005929709     1     5     2     8
 -0.0005485813     1     5     2     9
 0.0011215728     1     5     2    10
 0.0014159241     1     5     2    12
 0.0032996972     1     5     2    14
 -0.0017623949     1     5     2    16
 0.0734989093     1     5     3     1
 -0.0042856068     1     5     3     2
 -0.0027615218     1     5     3     3
 0.0014628130     1     5     3     6
 -0.0011812054     1     5     3     7
 -0.0010905403     1     5     3     8
 -0.0006472566     1     5     3     9
 -0.0020859118     1     5     3    10
 0.0011337195     1     5     3    12
 0.0005836310     1     5     3    14
 0.0026771182     1     5     3    16
 -0.0050990910     1     5     4     4
 -0.0010982581     1     5     4    11
 0.0027838478     1     5     4    13
 0.0018382030     1     5     4    15
 -0.7437651330     1     5     5     1
 0.0257851287     1     5     5     2
 -0.0063565485     1     5     5     3
 -0.0032094061     1     5     5     6
 0.0032902420     1     5     5     7
 -0.0000939736     1     5     5     8
 0.0041806097     1     5     5     9
 0.0014911434     1     5     5    10
 0.0023874305     1     5     5    12
 -0.0021140358     1     5     5    14
 -0.0049866346     1     5     5    16
 -0.2785301082     1     5     6     1
 0.0148928175     1     5     6     2
 -0.0044991854     1     5     6     3
 -0.0060366760     1     5     6     6
 0.0013177019     1     5     6     7
 0.0014722885     1     5     6     8
 0.0023517496     1     5     6     9
 0.0009328965     1     5     6    10
 0.0030985710     1     5     6    12
 0.0005870032     1     5     6    14
 -0.0047036619     1     5     6    16
 -0.0477914971     1     5     7     1
 0.0016218949     1     5     7     2
 -0.0015794498     1     5     7     3
 -0.0007731394     1     5     7     6
 -0.0002357859     1     5     7     7
 0.0002840293     1     5     7     8
 0.0004208241     1     5     7     9
 -0.0012393526     1     5     7    10
 0.0002995458     1     5     7    12
 -0.0004702929     1     5     7    14
 -0.0000214614     1     5     7    16
 0.0634905925     1     5     8     1
 -0.0044722378     1     5     8     2
 0.0014048784     1     5     8     3
 0.0023866920     1     5     8     6
 -0.0000445877     1     5     8     7
 -0.0021687180     1     5     8     8
 -0.0009309381     1     5     8     9
 0.0002124363     1     5     8    10
 -0.0014707931     1     5     8    12
 -0.0004888006     1     5     8    14
 0.0020246537     1     5     8    16
 -0.0423781777     1     5     9     1
 0.0019182155     1     5     9     2
 -0.0002293720     1     5     9     3
 -0.0006800253     1     5     9     6
 0.0005480410     1     5     9     7
 -0.0001071607     1     5     9     8
 -0.0008219247     1     5     9     9
 0.0006981740     1     5     9    10
 0.0016935528     1     5     9    12
 0.0000781871     1     5     9    14
 -0.0008681670     1     5     9    16
 0.1046630417     1     5    10     1
 -0.0065164689     1     5    10     2
 -0.0003364257     1     5    10     3
 0.0017012020     1     5    10     6
 -0.0023370119     1     5    10     7
 -0.0001259428     1     5    10     8
 -0.0011071473     1     5    10     9
 -0.0013672603     1     5    10    10
 -0.0012070794     1     5    10    12
 0.0027378060     1     5    10    14
 0.0020950999     1     5    10    16
 -0.0022303732     1     5    11     4
 -0.0030548516     1     5    11    11
 0.0005934100     1     5    11    13
 -0.0002101360     1     5    11    15
 0.0633136284     1     5    12     1
 -0.0046573304     1     5    12     2
 0.0012922531     1     5    12     3
 0.0018844297     1     5    12     6
 -0.0013084355     1     5    12     7
 -0.0007139269     1     5    12     8
 0.0003780953     1     5    12     9
 -0.0019172824     1     5    12    10
 -0.0015077189     1     5    12    12
 0.0005057167     1     5    12    14
 0.0026105061     1     5    12    16
 0.0016749534     1     5    13     4
 -0.0003865897     1     5    13    11
 -0.0011123468     1     5    13    13
 -0.0002118702     1     5    13    15
 0.1917351328     1     5    14     1
 -0.0109422791     1     5    14     2
 0.0038723794     1     5    14     3
 0.0034753990     1     5    14     6
 -0.0023458092     1     5    14     7
 -0.0005130609     1     5    14     8
 -0.0020879254     1     5    14     9
 0.0010603164     1     5    14    10
 -0.0019489794     1     5    14    12
 0.0030107603     1     5    14    14
 0.0040907223     1     5    14    16
 0.0004216408     1     5    15     4
 -0.0009397062     1     5    15    11
 0.0002890563     1     5    15    13
 -0.0000051092     1     5    15    15
 -0.0833223778     1     5    16     1
 0.0073609791     1     5    16     2
 -0.0020155850     1     5    16     3
 -0.0028987630     1     5    16     6
 0.0011597521     1     5    16     7
 0.0009692931     1     5    16     8
 0.0011616274     1     5    16     9
 0.0001355663     1     5    16    10
 0.0025702551     1     5    16    12
 0.0008319567     1     5    16    14
 -0.0052372753     1     5    16    16
 0.0842219412     1     6     2     1
 0.0006123230     1     6     2     2
 0.0008987178     1     6     2     3
 0.0011531969     1     6     2     5
 0.0001198479     1     6     2     7
 0.0001765886     1     6     2     8
 -0.0002487304     1     6     2     9
 0.0007559370     1     6     2    10
 0.0007539639     1     6     2    12
 0.0014593114     1     6     2    14
 -0.0010326539     1     6     2    16
 -0.0676494409     1     6     3     1
 0.0032021879     1     6     3     2
 0.0036262451     1     6     3     3
 -0.0014628130     1     6     3     5
 0.0015205075     1     6     3     7
 -0.0005148915     1     6     3     8
 -0.0002596940     1     6     3     9
 0.0026284511     1     6     3    10
 0.0010947789     1     6     3    12
 -0.0010119107     1     6     3    14
 0.0001695243     1     6     3    16
 0.0066591711     1     6     4     4
 0.0032770784     1     6     4    11
 -0.0021670861     1     6     4    13
 -0.0004438339     1     6     4    15
 -0.2785301082     1     6     5     1
 0.0171571300     1     6     5     2
 -0.0062532633     1     6     5     3
 0.0032094061     1     6     5     5
 0.0021206365     1     6     5     7
 -0.0009484095     1     6     5     8
 0.0030867377     1     6     5     9
 -0.0008249695     1     6     5    10
 0.0012481279     1     6     5    12
 -0.0029513840     1     6     5    14
 -0.0018486318     1     6     5    16
 -0.5019668864     1     6     6     1
 0.0132496820     1     6     6     2
 -0.0025926783     1     6     6     3
 0.0060366760     1     6     6     5
 0.0022300076     1     6     6     7
 -0.0003880370     1     6     6     8
 0.0025302251     1     6     6     9
 -0.0001675662     1     6     6    10
 0.0008309638     1     6     6    12
 -0.0039162842     1     6     6    14
 -0.0011309099     1     6     6    16
 -0.0293488025     1     6     7     1
 0.0032359703     1     6     7     2
 0.0010691263     1     6     7     3
 0.0007731394     1     6     7     5
 0.0013798218     1     6     7     7
 -0.0000074877     1     6     7     8
 0.0006890313     1     6     7     9
 0.0009301221     1     6     7    10
 -0.0000857745     1     6     7    12
 -0.0019048197     1     6     7    14
 -0.0001486380     1     6     7    16
 0.1135063198     1     6     8     1
 -0.0040391579     1     6     8     2
 0.0006402019     1     6     8     3
 -0.0023866920     1     6     8     5
 -0.0005595177     1     6     8     7
 -0.0010911846     1     6     8     8
 -0.0008960117     1     6     8     9
 0.0003273231     1     6     8    10
 -0.0004905734     1     6     8    12
 0.0013197852     1     6     8    14
 0.0006213056     1     6     8    16
 -0.0067324205     1     6     9     1
 0.0016904420     1     6     9     2
 -0.0008348731     1     6     9     3
 0.0006800253     1     6     9     5
 0.0004880551     1     6     9     7
 -0.0001515159     1     6     9     8
 -0.0004932398     1     6     9     9
 0.0006049930     1     6     9    10
 0.0010007149     1     6     9    12
 -0.0006328771     1     6     9    14
 -0.0003536748     1     6     9    16
 0.0335382705     1     6    10     1
 -0.0018700277     1     6    10     2
 0.0041007028     1     6    10     3
 -0.0017012020     1     6    10     5
 0.0004043486     1     6    10     7
 0.0001957701     1     6    10     8
 -0.0000578003     1     6    10     9
 0.0030551037     1     6    10    10
 -0.0003146077     1     6    10    12
 0.0011046774     1     6    10    14
 -0.0000072964     1     6    10    16
 0.0035682388     1     6    11     4
 -0.0001705714     1     6    11    11
 -0.0020222000     1     6    11    13
 -0.0009022602     1     6    11    15
 0.0933251714     1     6    12     1
 -0.0043438127     1     6    12     2
 0.0009997827     1     6    12     3
 -0.0018844297     1     6    12     5
 -0.0013757313     1     6    12     7
 -0.0000618315     1     6    12     8
 -0.0000960485     1     6    12     9
 -0.0006406954     1     6    12    10
 -0.0006116544     1     6    12    12
 0.0019530711     1     6    12    14
 0.0011088778     1     6    12    16
 -0.0029559773     1     6    13     4
 -0.0022013582     1     6    13    11
 0.0015831869     1     6    13    13
 0.0001990253     1     6    13    15
 0.1420904337     1     6    14     1
 -0.0104800668     1     6    14     2
 0.0015360794     1     6    14     3
 -0.0034753990     1     6    14     5
 -0.0031093556     1     6    14     7
 0.0004676996     1     6    14     8
 -0.0023592202     1     6    14     9
 0.0002281774     1     6    14    10
 -0.0004292800     1     6    14    12
 0.0054628373     1     6    14    14
 0.0019917027     1     6    14    16
 -0.0007085608     1     6    15     4
 -0.0009723327     1     6    15    11
 0.0002131668     1     6    15    13
 0.0002997877     1     6    15    15
 -0.1612537745     1     6    16     1
 0.0063389194     1     6    16     2
 -0.0015854002     1     6    16     3
 0.0028987630     1     6    16     5
 0.0012637198     1     6    16     7
 0.0000384411     1     6    16     8
 0.0012444887     1     6    16     9
 -0.0006111415     1     6    16    10
 0.0011184838     1     6    16    12
 -0.0012170023     1     6    16    14
 -0.0026732198     1     6    16    16
 -0.0977385722     1     7     2     1
 0.0020388526     1     7     2     2
 0.0007588512     1     7     2     3
 0.0004588759     1     7     2     5
 -0.0001198479     1     7     2     6
 0.0000778095     1     7     2     8
 -0.0000429421     1     7     2     9
 -0.0008463822     1     7     2    10
 0.0003076453     1     7     2    12
 0.0003601743     1     7     2    14
 -0.0004611859     1     7     2    16