&FCI NORB= 10,NELEC= 10,MS2=0,
 ORBSYM=1,1,1,1,1,1,1,1,1,1
 ISYM=1,
&END
 0.9850779540     1     1     2     2
 0.0664425011     1     1     2     4
 0.0836861792     1     1     2     6
 0.0506687474     1     1     2     8
 0.8724843953     1     1     3     3
 -0.0873041090     1     1     3     7
 0.0431754737     1     1     3    10
 0.0664425011     1     1     4     2
 0.9482164112     1     1     4     4
 -0.0453343576     1     1     4     6
 0.0968603200     1     1     4     8
 0.9939460646     1     1     5     5
 -0.1640981546     1     1     5     9
 0.0836861792     1     1     6     2
 -0.0453343576     1     1     6     4
 0.2482040390     1     1     6     6
 0.0194967936     1     1     6     8
 -0.0873041090     1     1     7     3
 0.2102934047     1     1     7     7
 -0.0000000002     1     1     7     8
 -0.0243388425     1     1     7    10
 0.0506687474     1     1     8     2
 0.0968603200     1     1     8     4
 0.0194967936     1     1     8     6
 -0.0000000002     1     1     8     7
 0.2759978593     1     1     8     8
 -0.0000000001     1     1     8    10
 -0.1640981546     1     1     9     5
 0.3216361595     1     1     9     9
 0.0431754737     1     1    10     3
 -0.0243388425     1     1    10     7
 -0.0000000001     1     1    10     8
 0.2769010504     1     1    10    10
 -0.9850779540     1     2     2     1
 -0.0071078986     1     2     2     4
 0.0007835312     1     2     2     6
 -0.0018199994     1     2     2     8
 0.0313766226     1     2     3     3
 -0.0065839208     1     2     3     7
 0.0048628054     1     2     3    10
 -0.0664425011     1     2     4     1
 0.0359932774     1     2     4     4
 -0.0044774632     1     2     4     6
 0.0061480900     1     2     4     8
 0.0407778701     1     2     5     5
 -0.0126121925     1     2     5     9
 -0.0836861792     1     2     6     1
 -0.0041394151     1     2     6     4
 0.0007215616     1     2     6     6
 -0.0007652469     1     2     6     8
 -0.0047334742     1     2     7     3
 0.0013590373     1     2     7     7
 0.0000000001     1     2     7     8
 -0.0009091267     1     2     7    10
 -0.0506687474     1     2     8     1
 0.0042795031     1     2     8     4
 -0.0004903497     1     2     8     6
 0.0000000001     1     2     8     7
 0.0015001396     1     2     8     8
 -0.0094722269     1     2     9     5
 0.0044734674     1     2     9     9
 0.0032407133     1     2    10     3
 -0.0008148415     1     2    10     7
 0.0007891780     1     2    10    10
 -0.0012834413     1     3     2     7
 0.0012644508     1     3     2    10
 -0.8724843953     1     3     3     1
 -0.0313766226     1     3     3     2
 -0.0106241239     1     3     3     4
 -0.0029878808     1     3     3     6
 -0.0036146304     1     3     3     8
 0.0004732960     1     3     4     7
 -0.0021697813     1     3     4    10
 0.0012439510     1     3     6     7
 0.0000907401     1     3     6    10
 0.0873041090     1     3     7     1
 0.0047334742     1     3     7     2
 0.0016268035     1     3     7     4
 0.0019977273     1     3     7     6
 0.0012389301     1     3     7     8
 0.0006723465     1     3     8     7
 0.0007581040     1     3     8    10
 -0.0431754737     1     3    10     1
 -0.0032407133     1     3    10     2
 -0.0010484130     1     3    10     4
 -0.0007703443     1     3    10     6
 0.0007386183     1     3    10     8
 -0.0664425011     1     4     2     1
 0.0071078986     1     4     2     2
 0.0001261741     1     4     2     6
 0.0013252461     1     4     2     8
 0.0106241239     1     4     3     3
 -0.0012808386     1     4     3     7
 -0.0010888004     1     4     3    10
 -0.9482164112     1     4     4     1
 -0.0359932774     1     4     4     2
 -0.0056649283     1     4     4     6
 -0.0026983946     1     4     4     8
 0.0136406526     1     4     5     5
 -0.0039600277     1     4     5     9
 0.0453343576     1     4     6     1
 0.0041394151     1     4     6     2
 0.0020269822     1     4     6     6
 -0.0005543156     1     4     6     8
 -0.0016268035     1     4     7     3
 0.0010047079     1     4     7     7
 0.0000000001     1     4     7     8
 -0.0008437655     1     4     7    10
 -0.0968603200     1     4     8     1
 -0.0042795031     1     4     8     2
 -0.0018686072     1     4     8     6
 0.0000000001     1     4     8     7
 -0.0016774893     1     4     8     8
 0.0000000001     1     4     8    10
 -0.0032318462     1     4     9     5
 0.0014673898     1     4     9     9
 0.0010484130     1     4    10     3
 -0.0012850625     1     4    10     7
 0.0000000001     1     4    10     8
 -0.0000414264     1     4    10    10
 -0.0020102521     1     5     2     9
 -0.0004244640     1     5     4     9
 -0.9939460646     1     5     5     1
 -0.0407778701     1     5     5     2
 -0.0136406526     1     5     5     4
 -0.0052539522     1     5     5     6
 -0.0063743931     1     5     5     8
 0.0017759642     1     5     6     9
 0.0001976250     1     5     8     9
 0.1640981546     1     5     9     1
 0.0094722269     1     5     9     2
 0.0032318462     1     5     9     4
 0.0034946220     1     5     9     6
 0.0022110339     1     5     9     8
 -0.0836861792     1     6     2     1
 -0.0007835312     1     6     2     2
 -0.0001261741     1     6     2     4
 -0.0002910738     1     6     2     8
 0.0029878808     1     6     3     3
 -0.0007503656     1     6     3     7
 0.0008720430     1     6     3    10
 0.0453343576     1     6     4     1
 0.0044774632     1     6     4     2
 0.0056649283     1     6     4     4
 0.0013046503     1     6     4     8
 0.0052539522     1     6     5     5
 -0.0016470875     1     6     5     9
 -0.2482040390     1     6     6     1
 -0.0007215616     1     6     6     2
 -0.0020269822     1     6     6     4
 -0.0002994683     1     6     6     8
 -0.0019977273     1     6     7     3
 0.0003905287     1     6     7     7
 -0.0002444776     1     6     7    10
 -0.0194967936     1     6     8     1
 0.0004903497     1     6     8     2
 0.0018686072     1     6     8     4
 0.0006560707     1     6     8     8
 -0.0034946220     1     6     9     5
 0.0012806952     1     6     9     9
 0.0007703443     1     6    10     3
 -0.0000341018     1     6    10     7
 0.0001655764     1     6    10    10
 0.0012834413     1     7     2     3
 -0.0000864436     1     7     2    10
 0.0873041090     1     7     3     1
 0.0065839208     1     7     3     2
 0.0012808386     1     7     3     4
 0.0007503656     1     7     3     6
 0.0005880469     1     7     3     8
 -0.0004732960     1     7     4     3
 0.0004323071     1     7     4    10
 -0.0012439510     1     7     6     3
 -0.0002099047     1     7     6    10
 -0.2102934047     1     7     7     1
 -0.0013590373     1     7     7     2
 -0.0010047079     1     7     7     4
 -0.0003905287     1     7     7     6
 -0.0004036369     1     7     7     8
 0.0000000002     1     7     8     1
 -0.0000000001     1     7     8     2
 -0.0006723465     1     7     8     3
 -0.0000000001     1     7     8     4
 -0.0002736205     1     7     8    10
 0.0243388425     1     7    10     1
 0.0008148415     1     7    10     2
 0.0012850625     1     7    10     4
 0.0000341018     1     7    10     6
 0.0000310897     1     7    10     8
 -0.0506687474     1     8     2     1
 0.0018199994     1     8     2     2
 -0.0013252461     1     8     2     4
 0.0002910738     1     8     2     6
 0.0036146304     1     8     3     3
 -0.0005880469     1     8     3     7
 0.0000671380     1     8     3    10
 -0.0968603200     1     8     4     1
 -0.0061480900     1     8     4     2
 0.0026983946     1     8     4     4
 -0.0013046503     1     8     4     6
 0.0063743931     1     8     5     5
 -0.0019751445     1     8     5     9
 -0.0194967936     1     8     6     1
 0.0007652469     1     8     6     2
 0.0005543156     1     8     6     4
 0.0002994683     1     8     6     6
 0.0000000002     1     8     7     1
 -0.0000000001     1     8     7     2
 -0.0012389301     1     8     7     3
 -0.0000000001     1     8     7     4
 0.0004036369     1     8     7     7
 -0.0003049061     1     8     7    10
 -0.2759978593     1     8     8     1
 -0.0015001396     1     8     8     2
 0.0016774893     1     8     8     4
 -0.0006560707     1     8     8     6
 -0.0022110339     1     8     9     5
 0.0008522480     1     8     9     9
 0.0000000001     1     8    10     1
 -0.0007386183     1     8    10     3
 -0.0000000001     1     8    10     4
 -0.0000310897     1     8    10     7
 -0.0001527947     1     8    10    10
 0.0020102521     1     9     2     5
 0.0004244640     1     9     4     5
 0.1640981546     1     9     5     1
 0.0126121925     1     9     5     2
 0.0039600277     1     9     5     4
 0.0016470875     1     9     5     6
 0.0019751445     1     9     5     8
 -0.0017759642     1     9     6     5
 -0.0001976250     1     9     8     5
 -0.3216361595     1     9     9     1
 -0.0044734674     1     9     9     2
 -0.0014673898     1     9     9     4
 -0.0012806952     1     9     9     6
 -0.0008522480     1     9     9     8
 -0.0012644508     1    10     2     3
 0.0000864436     1    10     2     7
 -0.0431754737     1    10     3     1
 -0.0048628054     1    10     3     2
 0.0010888004     1    10     3     4
 -0.0008720430     1    10     3     6
 -0.0000671380     1    10     3     8
 0.0021697813     1    10     4     3
 -0.0004323071     1    10     4     7
 -0.0000907401     1    10     6     3
 0.0002099047     1    10     6     7
 0.0243388425     1    10     7     1
 0.0009091267     1    10     7     2
 0.0008437655     1    10     7     4
 0.0002444776     1    10     7     6
 0.0003049061     1    10     7     8
 0.0000000001     1    10     8     1
 -0.0007581040     1    10     8     3
 -0.0000000001     1    10     8     4
 0.0002736205     1    10     8     7
 -0.2769010504     1    10    10     1
 -0.0007891780     1    10    10     2
 0.0000414264     1    10    10     4
 -0.0001655764     1    10    10     6
 0.0001527947     1    10    10     8
 -0.9850779540     2     1     1     2
 -0.0664425011     2     1     1     4
 -0.0836861792     2     1     1     6
 -0.0506687474     2     1     1     8
 0.0313766226     2     1     3     3
 -0.0047334742     2     1     3     7
 0.0032407133     2     1     3    10
 -0.0071078986     2     1     4     2
 0.0359932774     2     1     4     4
 -0.0041394151     2     1     4     6
 0.0042795031     2     1     4     8
 0.0407778701     2     1     5     5
 -0.0094722269     2     1     5     9
 0.0007835312     2     1     6     2
 -0.0044774632     2     1     6     4
 0.0007215616     2     1     6     6
 -0.0004903497     2     1     6     8
 -0.0065839208     2     1     7     3
 0.0013590373     2     1     7     7
 -0.0008148415     2     1     7    10
 -0.0018199994     2     1     8     2
 0.0061480900     2     1     8     4
 -0.0007652469     2     1     8     6
 0.0015001396     2     1     8     8
 -0.0126121925     2     1     9     5
 0.0044734674     2     1     9     9
 0.0048628054     2     1    10     3
 -0.0009091267     2     1    10     7
 0.0007891780     2     1    10    10
 0.9850779540     2     2     1     1
 0.0071078986     2     2     1     4
 -0.0007835312     2     2     1     6
 0.0018199994     2     2     1     8
 0.5292949912     2     2     3     3
 -0.0379000884     2     2     3     7
 0.0096745757     2     2     3    10
 0.0071078986     2     2     4     1
 0.5502079064     2     2     4     4
 -0.0196033402     2     2     4     6
 0.0427377835     2     2     4     8
 0.5768912445     2     2     5     5
 -0.0716033190     2     2     5     9
 -0.0007835312     2     2     6     1
 -0.0196033402     2     2     6     4
 0.2315901563     2     2     6     6
 0.0000000002     2     2     6     7
 0.0116235715     2     2     6     8
 0.0000000001     2     2     6    10
 -0.0379000884     2     2     7     3
 0.0000000002     2     2     7     6
 0.1998443962     2     2     7     7
 0.0000000010     2     2     7     8
 -0.0191342915     2     2     7    10
 0.0018199994     2     2     8     1
 0.0427377835     2     2     8     4
 0.0116235715     2     2     8     6
 0.0000000010     2     2     8     7
 0.2478248584     2     2     8     8
 0.0000000007     2     2     8    10
 -0.0716033190     2     2     9     5
 0.2770326751     2     2     9     9
 0.0096745757     2     2    10     3
 0.0000000001     2     2    10     6
 -0.0191342915     2     2    10     7
 0.0000000007     2     2    10     8
 0.2641603383     2     2    10    10
 0.0012834413     2     3     1     7
 -0.0012644508     2     3     1    10
 -0.0313766226     2     3     3     1
 -0.5292949912     2     3     3     2
 -0.0016334953     2     3     3     4
 -0.0391826773     2     3     3     6
 -0.0227579840     2     3     3     8
 -0.0040098125     2     3     4     7
 0.0156591601     2     3     4    10
 -0.0000000001     2     3     6     6
 -0.0205188526     2     3     6     7
 -0.0000000004     2     3     6     8
 0.0024676619     2     3     6    10
 0.0065839208     2     3     7     1
 0.0379000884     2     3     7     2
 -0.0009824808     2     3     7     4
 -0.0157011934     2     3     7     6
 -0.0041917533     2     3     7     8
 0.0000000001     2     3     7    10
 -0.0000000004     2     3     8     6
 -0.0073127190     2     3     8     7
 0.0000000004     2     3     8     8
 -0.0138490464     2     3     8    10
 -0.0048628054     2     3    10     1
 -0.0096745757     2     3    10     2
 0.0029723930     2     3    10     4
 0.0016185624     2     3    10     6
 0.0000000001     2     3    10     7
 -0.0158959173     2     3    10     8
 0.0000000005     2     3    10    10
 0.0664425011     2     4     1     1
 -0.0071078986     2     4     1     2
 -0.0001261741     2     4     1     6
 -0.0013252461     2     4     1     8
 0.0016334953     2     4     3     3
 -0.0032692833     2     4     3     7
 0.0126733360     2     4     3    10
 -0.0359932774     2     4     4     1
 -0.5502079064     2     4     4     2
 -0.0393290598     2     4     4     6
 -0.0174794286     2     4     4     8
 0.0037085245     2     4     5     5
 -0.0016897421     2     4     5     9
 0.0044774632     2     4     6     1
 0.0196033402     2     4     6     2
 -0.0092263844     2     4     6     6
 0.0000000001     2     4     6     7
 0.0136219763     2     4     6     8
 0.0009824808     2     4     7     3
 0.0000000001     2     4     7     6
 -0.0069594515     2     4     7     7
 0.0000000004     2     4     7     8
 0.0088668870     2     4     7    10
 -0.0061480900     2     4     8     1
 -0.0427377835     2     4     8     2
 0.0070878080     2     4     8     6
 0.0000000004     2     4     8     7
 0.0138922576     2     4     8     8
 0.0000000002     2     4     8    10
 -0.0001610273     2     4     9     5
 0.0031509743     2     4     9     9
 -0.0029723930     2     4    10     3
 0.0103643382     2     4    10     7
 0.0000000002     2     4    10     8
 0.0052367588     2     4    10    10
 0.0020102521     2     5     1     9
 -0.0008765507     2     5     4     9
 -0.0407778701     2     5     5     1
 -0.5768912445     2     5     5     2
 -0.0037085245     2     5     5     4
 -0.0390414483     2     5     5     6
 -0.0151366062     2     5     5     8
 -0.0186542326     2     5     6     9
 -0.0022303818     2     5     8     9
 0.0126121925     2     5     9     1
 0.0716033190     2     5     9     2
 0.0001610273     2     5     9     4
 -0.0100140340     2     5     9     6
 0.0016975930     2     5     9     8
 0.0836861792     2     6     1     1
 0.0007835312     2     6     1     2
 0.0001261741     2     6     1     4
 0.0002910738     2     6     1     8
 0.0391826773     2     6     3     3
 -0.0049214956     2     6     3     7
 0.0000000001     2     6     3     8
 0.0006562239     2     6     3    10
 0.0041394151     2     6     4     1
 0.0196033402     2     6     4     2
 0.0393290598     2     6     4     4
 0.0065998635     2     6     4     8
 0.0390414483     2     6     5     5
 -0.0087083672     2     6     5     9
 -0.0007215616     2     6     6     1
 -0.2315901563     2     6     6     2
 0.0000000001     2     6     6     3
 0.0092263844     2     6     6     4
 0.0000000001     2     6     6     7
 -0.0006611459     2     6     6     8
 0.0000000001     2     6     6    10
 -0.0000000002     2     6     7     2
 0.0157011934     2     6     7     3
 -0.0000000001     2     6     7     4
 0.0018960302     2     6     7     7
 -0.0000000002     2     6     7     8
 -0.0020910407     2     6     7    10
 0.0007652469     2     6     8     1
 -0.0116235715     2     6     8     2
 0.0000000004     2     6     8     3
 -0.0070878080     2     6     8     4
 0.0000000003     2     6     8     7
 0.0040316767     2     6     8     8
 0.0000000002     2     6     8    10
 0.0100140340     2     6     9     5
 0.0061886732     2     6     9     9
 -0.0000000001     2     6    10     2
 -0.0016185624     2     6    10     3
 -0.0010952788     2     6    10     7
 -0.0000000001     2     6    10     8
 0.0063000352     2     6    10    10
 -0.0012834413     2     7     1     3
 0.0000864436     2     7     1    10
 0.0047334742     2     7     3     1
 0.0379000884     2     7     3     2
 0.0032692833     2     7     3     4
 0.0049214956     2     7     3     6
 0.0031007397     2     7     3     8
 0.0040098125     2     7     4     3
 0.0000000001     2     7     4     8
 -0.0013760132     2     7     4    10
 -0.0000000002     2     7     6     2
 0.0205188526     2     7     6     3
 -0.0000000001     2     7     6     4
 -0.0000000001     2     7     6     6
 -0.0000000005     2     7     6     8
 -0.0009924556     2     7     6    10
 -0.0013590373     2     7     7     1
 -0.1998443962     2     7     7     2
 0.0069594515     2     7     7     4
 -0.0018960302     2     7     7     6
 -0.0000037961     2     7     7     8
 0.0000000001     2     7     7    10
 -0.0000000010     2     7     8     2
 0.0073127190     2     7     8     3
 -0.0000000004     2     7     8     4
 -0.0000000003     2     7     8     6
 0.0000000001     2     7     8     8
 0.0009403106     2     7     8    10
 0.0009091267     2     7    10     1
 0.0191342915     2     7    10     2
 -0.0000000001     2     7    10     3
 -0.0103643382     2     7    10     4
 0.0010952788     2     7    10     6
 0.0008209293     2     7    10     8
 0.0000000005     2     7    10    10
 0.0506687474     2     8     1     1
 -0.0018199994     2     8     1     2
 0.0013252461     2     8     1     4
 -0.0002910738     2     8     1     6
 0.0227579840     2     8     3     3
 -0.0000000001     2     8     3     6
 -0.0031007397     2     8     3     7
 0.0017040496     2     8     3    10
 -0.0042795031     2     8     4     1
 -0.0427377835     2     8     4     2
 0.0174794286     2     8     4     4
 -0.0065998635     2     8     4     6
 -0.0000000001     2     8     4     7
 -0.0000000001     2     8     4    10
 0.0151366062     2     8     5     5
 -0.0040321532     2     8     5     9
 0.0004903497     2     8     6     1
 -0.0116235715     2     8     6     2
 0.0000000004     2     8     6     3
 -0.0136219763     2     8     6     4
 0.0006611459     2     8     6     6
 0.0000000005     2     8     6     7
 0.0000000003     2     8     6    10
 -0.0000000010     2     8     7     2
 0.0041917533     2     8     7     3
 -0.0000000004     2     8     7     4
 0.0000000002     2     8     7     6
 0.0000037961     2     8     7     7
 0.0001354545     2     8     7    10
 -0.0015001396     2     8     8     1
 -0.2478248584     2     8     8     2
 -0.0000000004     2     8     8     3
 -0.0138922576     2     8     8     4
 -0.0040316767     2     8     8     6
 -0.0000000001     2     8     8     7
 -0.0000000001     2     8     8    10
 -0.0016975930     2     8     9     5
 0.0027523778     2     8     9     9
 -0.0000000007     2     8    10     2
 0.0158959173     2     8    10     3
 -0.0000000002     2     8    10     4
 0.0000000001     2     8    10     6
 -0.0008209293     2     8    10     7
 0.0026930409     2     8    10    10
 -0.0020102521     2     9     1     5
 0.0008765507     2     9     4     5
 0.0094722269     2     9     5     1
 0.0716033190     2     9     5     2
 0.0016897421     2     9     5     4
 0.0087083672     2     9     5     6
 0.0040321532     2     9     5     8
 0.0186542326     2     9     6     5
 0.0022303818     2     9     8     5
 -0.0044734674     2     9     9     1
 -0.2770326751     2     9     9     2
 -0.0031509743     2     9     9     4
 -0.0061886732     2     9     9     6
 -0.0027523778     2     9     9     8
 0.0012644508     2    10     1     3
 -0.0000864436     2    10     1     7
 -0.0032407133     2    10     3     1
 -0.0096745757     2    10     3     2
 -0.0126733360     2    10     3     4
 -0.0006562239     2    10     3     6
 -0.0017040496     2    10     3     8
 -0.0156591601     2    10     4     3
 0.0013760132     2    10     4     7
 0.0000000001     2    10     4     8
 -0.0000000001     2    10     6     2
 -0.0024676619     2    10     6     3
 -0.0000000001     2    10     6     6
 0.0009924556     2    10     6     7
 -0.0000000003     2    10     6     8
 0.0008148415     2    10     7     1
 0.0191342915     2    10     7     2
 -0.0000000001     2    10     7     3
 -0.0088668870     2    10     7     4
 0.0020910407     2    10     7     6
 -0.0000000001     2    10     7     7
 -0.0001354545     2    10     7     8
 -0.0000000007     2    10     8     2
 0.0138490464     2    10     8     3
 -0.0000000002     2    10     8     4
 -0.0000000002     2    10     8     6
 -0.0009403106     2    10     8     7
 0.0000000001     2    10     8     8
 -0.0007891780     2    10    10     1
 -0.2641603383     2    10    10     2
 -0.0000000005     2    10    10     3
 -0.0052367588     2    10    10     4
 -0.0063000352     2    10    10     6
 -0.0000000005     2    10    10     7
 -0.0026930409     2    10    10     8
 -0.8724843953     3     1     1     3
 0.0873041090     3     1     1     7
 -0.0431754737     3     1     1    10
 -0.0313766226     3     1     2     3
 0.0047334742     3     1     2     7
 -0.0032407133     3     1     2    10
 -0.0106241239     3     1     4     3
 0.0016268035     3     1     4     7
 -0.0010484130     3     1     4    10
 -0.0029878808     3     1     6     3
 0.0019977273     3     1     6     7
 -0.0007703443     3     1     6    10
 -0.0012834413     3     1     7     2
 0.0004732960     3     1     7     4
 0.0012439510     3     1     7     6
 0.0006723465     3     1     7     8
 -0.0036146304     3     1     8     3
 0.0012389301     3     1     8     7
 0.0007386183     3     1     8    10
 0.0012644508     3     1    10     2
 -0.0021697813     3     1    10     4
 0.0000907401     3     1    10     6
 0.0007581040     3     1    10     8
 -0.0313766226     3     2     1     3
 0.0065839208     3     2     1     7
 -0.0048628054     3     2     1    10
 -0.5292949912     3     2     2     3
 0.0379000884     3     2     2     7
 -0.0096745757     3     2     2    10
 -0.0016334953     3     2     4     3
 -0.0009824808     3     2     4     7
 0.0029723930     3     2     4    10
 -0.0391826773     3     2     6     3
 -0.0000000001     3     2     6     6
 -0.0157011934     3     2     6     7
 -0.0000000004     3     2     6     8
 0.0016185624     3     2     6    10
 0.0012834413     3     2     7     1
 -0.0040098125     3     2     7     4
 -0.0205188526     3     2     7     6
 -0.0073127190     3     2     7     8
 0.0000000001     3     2     7    10
 -0.0227579840     3     2     8     3
 -0.0000000004     3     2     8     6
 -0.0041917533     3     2     8     7
 0.0000000004     3     2     8     8
 -0.0158959173     3     2     8    10
 -0.0012644508     3     2    10     1
 0.0156591601     3     2    10     4
 0.0024676619     3     2    10     6
 0.0000000001     3     2    10     7
 -0.0138490464     3     2    10     8
 0.0000000005     3     2    10    10
 0.8724843953     3     3     1     1
 0.0313766226     3     3     1     2
 0.0106241239     3     3     1     4
 0.0029878808     3     3     1     6
 0.0036146304     3     3     1     8
 0.0313766226     3     3     2     1
 0.5292949912     3     3     2     2
 0.0016334953     3     3     2     4
 0.0391826773     3     3     2     6
 0.0227579840     3     3     2     8
 0.0106241239     3     3     4     1
 0.0016334953     3     3     4     2
 0.5626777622     3     3     4     4
 -0.0219113560     3     3     4     6
 0.0437476088     3     3     4     8
 0.5857174448     3     3     5     5
 -0.0745424546     3     3     5     9
 0.0029878808     3     3     6     1
 0.0391826773     3     3     6     2
 -0.0219113560     3     3     6     4
 0.2334415122     3     3     6     6
 0.0124527060     3     3     6     8
 0.1971983295     3     3     7     7
 -0.0000000002     3     3     7     8
 -0.0166388704     3     3     7    10
 0.0036146304     3     3     8     1
 0.0227579840     3     3     8     2
 0.0437476088     3     3     8     4
 0.0124527060     3     3     8     6
 -0.0000000002     3     3     8     7
 0.2439704307     3     3     8     8
 -0.0000000001     3     3     8    10
 -0.0745424546     3     3     9     5
 0.2709174231     3     3     9     9
 -0.0166388704     3     3    10     7
 -0.0000000001     3     3    10     8
 0.2580114203     3     3    10    10
 -0.0106241239     3     4     1     3
 0.0012808386     3     4     1     7
 0.0010888004     3     4     1    10
 -0.0016334953     3     4     2     3
 0.0032692833     3     4     2     7
 -0.0126733360     3     4     2    10
 -0.5626777622     3     4     4     3
 0.0450235803     3     4     4     7
 -0.0212989952     3     4     4    10
 0.0219113560     3     4     6     3
 0.0019907879     3     4     6     7
 0.0000000001     3     4     6     8
 -0.0015349647     3     4     6    10
 -0.0004732960     3     4     7     1
 0.0040098125     3     4     7     2
 0.0051413319     3     4     7     6
 -0.0010917648     3     4     7     8
 -0.0437476088     3     4     8     3
 0.0000000001     3     4     8     6
 0.0056582524     3     4     8     7
 -0.0037769655     3     4     8    10
 0.0021697813     3     4    10     1
 -0.0156591601     3     4    10     2
 -0.0029193391     3     4    10     6
 0.0016448172     3     4    10     8
 -0.0000000001     3     4    10    10
 -0.5857174448     3     5     5     3
 0.0462262719     3     5     5     7
 -0.0172496082     3     5     5    10
 0.0021502912     3     5     7     9
 0.0745424546     3     5     9     3
 -0.0086018409     3     5     9     7
 0.0057360897     3     5     9    10
 0.0005960321     3     5    10     9
 -0.0029878808     3     6     1     3
 0.0007503656     3     6     1     7
 -0.0008720430     3     6     1    10
 -0.0391826773     3     6     2     3
 0.0049214956     3     6     2     7
 -0.0000000001     3     6     2     8
 -0.0006562239     3     6     2    10
 0.0219113560     3     6     4     3
 -0.0034715804     3     6     4     7
 -0.0000000001     3     6     4     8
 0.0013139378     3     6     4    10
 0.0000000001     3     6     6     2
 -0.2334415122     3     6     6     3
 0.0104685480     3     6     6     7
 -0.0000000001     3     6     6     8
 0.0041575773     3     6     6    10
 -0.0012439510     3     6     7     1
 0.0205188526     3     6     7     2
 -0.0051413319     3     6     7     4
 -0.0042678079     3     6     7     8
 0.0000000001     3     6     7    10
 0.0000000004     3     6     8     2
 -0.0124527060     3     6     8     3
 -0.0000000001     3     6     8     4
 0.0033705793     3     6     8     7
 -0.0016150712     3     6     8    10
 -0.0000907401     3     6    10     1
 -0.0024676619     3     6    10     2
 0.0029193391     3     6    10     4
 0.0044521241     3     6    10     8
 0.0000000001     3     6    10    10
 -0.0873041090     3     7     1     1
 -0.0065839208     3     7     1     2
 -0.0012808386     3     7     1     4
 -0.0007503656     3     7     1     6
 -0.0005880469     3     7     1     8
 -0.0047334742     3     7     2     1
 -0.0379000884     3     7     2     2
 -0.0032692833     3     7     2     4
 -0.0049214956     3     7     2     6
 -0.0031007397     3     7     2     8
 -0.0016268035     3     7     4     1
 0.0009824808     3     7     4     2
 -0.0450235803     3     7     4     4
 0.0034715804     3     7     4     6
 -0.0069694615     3     7     4     8
 -0.0462262719     3     7     5     5
 0.0108747077     3     7     5     9
 -0.0019977273     3     7     6     1
 0.0157011934     3     7     6     2
 -0.0019907879     3     7     6     4
 -0.0104685480     3     7     6     6
 -0.0076315089     3     7     6     8
 0.0000000001     3     7     6    10
 -0.1971983295     3     7     7     3
 0.0000000001     3     7     7     8
 0.0037857085     3     7     7    10
 -0.0012389301     3     7     8     1
 0.0041917533     3     7     8     2
 0.0000000002     3     7     8     3
 -0.0056582524     3     7     8     4
 -0.0033705793     3     7     8     6
 -0.0097256602     3     7     8     8
 0.0000000004     3     7     8    10
 0.0086018409     3     7     9     5
 -0.0099555139     3     7     9     9
 -0.0000000001     3     7    10     2
 0.0166388704     3     7    10     3
 -0.0118273846     3     7    10    10
 -0.0036146304     3     8     1     3
 0.0005880469     3     8     1     7
 -0.0000671380     3     8     1    10
 -0.0227579840     3     8     2     3
 0.0000000001     3     8     2     6
 0.0031007397     3     8     2     7
 -0.0017040496     3     8     2    10
 -0.0437476088     3     8     4     3