&FCI NORB=  6,NELEC=  6,MS2=0,
 ORBSYM=1,1,1,1,1,1
 ISYM=1,
&END
 0.2007186331     1     1     2     2
 -0.0254056640     1     1     2     4
 -0.0015567097     1     1     2     6
 0.2427090426     1     1     3     3
 -0.0366618501     1     1     3     5
 -0.0254056640     1     1     4     2
 0.2412303147     1     1     4     4
 -0.0521852943     1     1     4     6
 -0.0366618501     1     1     5     3
 0.1856899028     1     1     5     5
 -0.0015567097     1     1     6     2
 -0.0521852943     1     1     6     4
 0.1878163904     1     1     6     6
 -0.2007186331     1     2     2     1
 0.0671007886     1     2     2     3
 -0.0045694045     1     2     2     5
 0.0553623756     1     2     3     4
 -0.0263465776     1     2     3     6
 0.0254056640     1     2     4     1
 0.0205101505     1     2     4     3
 0.0447805653     1     2     4     5
 0.0322487558     1     2     5     4
 0.0353095819     1     2     5     6
 0.0015567097     1     2     6     1
 -0.0174762103     1     2     6     3
 0.0288198859     1     2     6     5
 -0.0671007886     1     3     2     2
 0.0357913717     1     3     2     4
 -0.0091236667     1     3     2     6
 -0.2427090426     1     3     3     1
 0.0264369674     1     3     3     5
 -0.0205101505     1     3     4     2
 -0.0060873363     1     3     4     4
 0.0178405771     1     3     4     6
 0.0366618501     1     3     5     1
 0.0042499449     1     3     5     5
 0.0174762103     1     3     6     2
 0.0057778704     1     3     6     4
 0.0020294090     1     3     6     6
 0.0254056640     1     4     2     1
 -0.0357913717     1     4     2     3
 0.0128094127     1     4     2     5
 -0.0553623756     1     4     3     2
 0.0119915505     1     4     3     6
 -0.2412303147     1     4     4     1
 0.0060873363     1     4     4     3
 0.0052792970     1     4     4     5
 -0.0322487558     1     4     5     2
 0.0031055370     1     4     5     6
 0.0521852943     1     4     6     1
 -0.0057778704     1     4     6     3
 -0.0030607268     1     4     6     5
 0.0045694045     1     5     2     2
 -0.0128094127     1     5     2     4
 0.0069760346     1     5     2     6
 0.0366618501     1     5     3     1
 -0.0264369674     1     5     3     3
 0.0000000001     1     5     3     6
 -0.0447805653     1     5     4     2
 -0.0052792970     1     5     4     4
 0.0061894699     1     5     4     6
 -0.1856899028     1     5     5     1
 -0.0042499449     1     5     5     3
 -0.0288198859     1     5     6     2
 0.0030607268     1     5     6     4
 -0.0025452107     1     5     6     6
 0.0015567097     1     6     2     1
 0.0091236667     1     6     2     3
 -0.0069760346     1     6     2     5
 0.0263465776     1     6     3     2
 -0.0119915505     1     6     3     4
 -0.0000000001     1     6     3     5
 0.0521852943     1     6     4     1
 -0.0178405771     1     6     4     3
 -0.0061894699     1     6     4     5
 -0.0353095819     1     6     5     2
 -0.0031055370     1     6     5     4
 -0.1878163904     1     6     6     1
 -0.0020294090     1     6     6     3
 0.0025452107     1     6     6     5
 -0.2007186331     2     1     1     2
 0.0254056640     2     1     1     4
 0.0015567097     2     1     1     6
 0.0671007886     2     1     3     2
 0.0205101505     2     1     3     4
 -0.0174762103     2     1     3     6
 0.0553623756     2     1     4     3
 0.0322487558     2     1     4     5
 -0.0045694045     2     1     5     2
 0.0447805653     2     1     5     4
 0.0288198859     2     1     5     6
 -0.0263465776     2     1     6     3
 0.0353095819     2     1     6     5
 0.2007186331     2     2     1     1
 -0.0671007886     2     2     1     3
 0.0045694045     2     2     1     5
 -0.0671007886     2     2     3     1
 0.2022964997     2     2     3     3
 -0.0133892921     2     2     3     5
 0.2231585344     2     2     4     4
 -0.0344295137     2     2     4     6
 0.0045694045     2     2     5     1
 -0.0133892921     2     2     5     3
 0.1882332804     2     2     5     5
 -0.0344295137     2     2     6     4
 0.1877523968     2     2     6     6
 0.0671007886     2     3     1     2
 -0.0357913717     2     3     1     4
 0.0091236667     2     3     1     6
 -0.2022964997     2     3     3     2
 0.0721952253     2     3     3     4
 -0.0165767613     2     3     3     6
 -0.0553623756     2     3     4     1
 0.0551437737     2     3     4     5
 0.0133892921     2     3     5     2
 0.0290450591     2     3     5     4
 0.0416565238     2     3     5     6
 0.0263465776     2     3     6     1
 0.0283676290     2     3     6     5
 0.0000000001     2     3     6     6
 -0.0254056640     2     4     1     1
 0.0357913717     2     4     1     3
 -0.0128094127     2     4     1     5
 -0.0205101505     2     4     3     1
 -0.0721952253     2     4     3     3
 0.0272692279     2     4     3     5
 -0.2231585344     2     4     4     2
 0.0275887812     2     4     4     6
 -0.0447805653     2     4     5     1
 -0.0290450591     2     4     5     3
 0.0050601510     2     4     5     5
 0.0344295137     2     4     6     2
 -0.0013024954     2     4     6     6
 -0.0045694045     2     5     1     2
 0.0128094127     2     5     1     4
 -0.0069760346     2     5     1     6
 0.0133892921     2     5     3     2
 -0.0272692279     2     5     3     4
 0.0140673098     2     5     3     6
 -0.0322487558     2     5     4     1
 -0.0551437737     2     5     4     3
 -0.1882332804     2     5     5     2
 -0.0050601510     2     5     5     4
 0.0115567490     2     5     5     6
 -0.0353095819     2     5     6     1
 -0.0283676290     2     5     6     3
 0.0000000001     2     5     6     6
 -0.0015567097     2     6     1     1
 -0.0091236667     2     6     1     3
 0.0069760346     2     6     1     5
 0.0174762103     2     6     3     1
 0.0165767613     2     6     3     3
 -0.0140673098     2     6     3     5
 0.0344295137     2     6     4     2
 -0.0275887812     2     6     4     4
 -0.0288198859     2     6     5     1
 -0.0416565238     2     6     5     3
 -0.0115567490     2     6     5     5
 -0.1877523968     2     6     6     2
 -0.0000000001     2     6     6     3
 0.0013024954     2     6     6     4
 -0.0000000001     2     6     6     5
 -0.2427090426     3     1     1     3
 0.0366618501     3     1     1     5
 -0.0671007886     3     1     2     2
 -0.0205101505     3     1     2     4
 0.0174762103     3     1     2     6
 0.0357913717     3     1     4     2
 -0.0060873363     3     1     4     4
 0.0057778704     3     1     4     6
 0.0264369674     3     1     5     3
 0.0042499449     3     1     5     5
 -0.0091236667     3     1     6     2
 0.0178405771     3     1     6     4
 0.0020294090     3     1     6     6
 -0.0553623756     3     2     1     4
 0.0263465776     3     2     1     6
 0.0671007886     3     2     2     1
 -0.2022964997     3     2     2     3
 0.0133892921     3     2     2     5
 -0.0357913717     3     2     4     1
 0.0721952253     3     2     4     3
 0.0290450591     3     2     4     5
 0.0551437737     3     2     5     4
 0.0283676290     3     2     5     6
 0.0091236667     3     2     6     1
 -0.0165767613     3     2     6     3
 0.0416565238     3     2     6     5
 0.0000000001     3     2     6     6
 0.2427090426     3     3     1     1
 -0.0264369674     3     3     1     5
 0.2022964997     3     3     2     2
 -0.0721952253     3     3     2     4
 0.0165767613     3     3     2     6
 -0.0721952253     3     3     4     2
 0.2160819656     3     3     4     4
 -0.0254323473     3     3     4     6
 -0.0264369674     3     3     5     1
 0.1836871364     3     3     5     5
 0.0165767613     3     3     6     2
 -0.0254323473     3     3     6     4
 0.1805057242     3     3     6     6
 0.0553623756     3     4     1     2
 -0.0119915505     3     4     1     6
 0.0205101505     3     4     2     1
 0.0721952253     3     4     2     3
 -0.0272692279     3     4     2     5
 0.0060873363     3     4     4     1
 -0.2160819656     3     4     4     3
 0.0614758656     3     4     4     5
 0.0000000001     3     4     4     6
 -0.0551437737     3     4     5     2
 0.0496022528     3     4     5     6
 -0.0178405771     3     4     6     1
 0.0254323473     3     4     6     3
 0.0166422144     3     4     6     5
 0.0000000004     3     4     6     6
 -0.0366618501     3     5     1     1
 0.0264369674     3     5     1     3
 -0.0000000001     3     5     1     6
 -0.0133892921     3     5     2     2
 0.0272692279     3     5     2     4
 -0.0140673098     3     5     2     6
 -0.0290450591     3     5     4     2
 -0.0614758656     3     5     4     4
 0.0331605226     3     5     4     6
 -0.0042499449     3     5     5     1
 -0.1836871364     3     5     5     3
 0.0000000002     3     5     5     6
 -0.0416565238     3     5     6     2
 -0.0166422144     3     5     6     4
 0.0051124313     3     5     6     6
 -0.0263465776     3     6     1     2
 0.0119915505     3     6     1     4
 0.0000000001     3     6     1     5
 -0.0174762103     3     6     2     1
 -0.0165767613     3     6     2     3
 0.0140673098     3     6     2     5
 -0.0057778704     3     6     4     1
 0.0254323473     3     6     4     3
 -0.0000000001     3     6     4     4
 -0.0331605226     3     6     4     5
 -0.0283676290     3     6     5     2
 -0.0496022528     3     6     5     4
 -0.0000000002     3     6     5     5
 -0.0020294090     3     6     6     1
 -0.0000000001     3     6     6     2
 -0.1805057242     3     6     6     3
 -0.0000000004     3     6     6     4
 -0.0051124313     3     6     6     5
 0.0254056640     4     1     1     2
 -0.2412303147     4     1     1     4
 0.0521852943     4     1     1     6
 -0.0553623756     4     1     2     3
 -0.0322487558     4     1     2     5
 -0.0357913717     4     1     3     2
 0.0060873363     4     1     3     4
 -0.0057778704     4     1     3     6
 0.0128094127     4     1     5     2
 0.0052792970     4     1     5     4
 -0.0030607268     4     1     5     6
 0.0119915505     4     1     6     3
 0.0031055370     4     1     6     5
 -0.0254056640     4     2     1     1
 -0.0205101505     4     2     1     3
 -0.0447805653     4     2     1     5
 -0.2231585344     4     2     2     4
 0.0344295137     4     2     2     6
 0.0357913717     4     2     3     1
 -0.0721952253     4     2     3     3
 -0.0290450591     4     2     3     5
 -0.0128094127     4     2     5     1
 0.0272692279     4     2     5     3
 0.0050601510     4     2     5     5
 0.0275887812     4     2     6     4
 -0.0013024954     4     2     6     6
 0.0205101505     4     3     1     2
 0.0060873363     4     3     1     4
 -0.0178405771     4     3     1     6
 0.0553623756     4     3     2     1
 -0.0551437737     4     3     2     5
 0.0721952253     4     3     3     2
 -0.2160819656     4     3     3     4
 0.0254323473     4     3     3     6
 -0.0272692279     4     3     5     2
 0.0614758656     4     3     5     4
 0.0166422144     4     3     5     6
 -0.0119915505     4     3     6     1
 0.0000000001     4     3     6     4
 0.0496022528     4     3     6     5
 0.0000000004     4     3     6     6
 0.2412303147     4     4     1     1
 -0.0060873363     4     4     1     3
 -0.0052792970     4     4     1     5
 0.2231585344     4     4     2     2
 -0.0275887812     4     4     2     6
 -0.0060873363     4     4     3     1
 0.2160819656     4     4     3     3
 -0.0614758656     4     4     3     5
 -0.0000000001     4     4     3     6
 -0.0052792970     4     4     5     1
 -0.0614758656     4     4     5     3
 0.1492589594     4     4     5     5
 -0.0275887812     4     4     6     2
 -0.0000000001     4     4     6     3
 0.1691134602     4     4     6     6
 0.0447805653     4     5     1     2
 0.0052792970     4     5     1     4
 -0.0061894699     4     5     1     6
 0.0322487558     4     5     2     1
 0.0551437737     4     5     2     3
 0.0290450591     4     5     3     2
 0.0614758656     4     5     3     4
 -0.0331605226     4     5     3     6
 -0.0050601510     4     5     5     2
 -0.1492589594     4     5     5     4
 0.0519341156     4     5     5     6
 -0.0031055370     4     5     6     1
 -0.0496022528     4     5     6     3
 -0.0000000005     4     5     6     6
 -0.0521852943     4     6     1     1
 0.0178405771     4     6     1     3
 0.0061894699     4     6     1     5
 -0.0344295137     4     6     2     2
 0.0275887812     4     6     2     4
 0.0057778704     4     6     3     1
 -0.0254323473     4     6     3     3
 0.0000000001     4     6     3     4
 0.0331605226     4     6     3     5
 0.0030607268     4     6     5     1
 -0.0166422144     4     6     5     3
 -0.0519341156     4     6     5     5
 0.0013024954     4     6     6     2
 -0.0000000004     4     6     6     3
 -0.1691134602     4     6     6     4
 0.0000000005     4     6     6     5
 0.0366618501     5     1     1     3
 -0.1856899028     5     1     1     5
 0.0045694045     5     1     2     2
 -0.0447805653     5     1     2     4
 -0.0288198859     5     1     2     6
 -0.0264369674     5     1     3     3
 -0.0042499449     5     1     3     5
 -0.0128094127     5     1     4     2
 -0.0052792970     5     1     4     4
 0.0030607268     5     1     4     6
 0.0069760346     5     1     6     2
 0.0000000001     5     1     6     3
 0.0061894699     5     1     6     4
 -0.0025452107     5     1     6     6
 -0.0322487558     5     2     1     4
 -0.0353095819     5     2     1     6
 -0.0045694045     5     2     2     1
 0.0133892921     5     2     2     3
 -0.1882332804     5     2     2     5
 -0.0551437737     5     2     3     4
 -0.0283676290     5     2     3     6
 0.0128094127     5     2     4     1
 -0.0272692279     5     2     4     3
 -0.0050601510     5     2     4     5
 -0.0069760346     5     2     6     1
 0.0140673098     5     2     6     3
 0.0115567490     5     2     6     5
 0.0000000001     5     2     6     6
 -0.0366618501     5     3     1     1
 -0.0042499449     5     3     1     5
 -0.0133892921     5     3     2     2
 -0.0290450591     5     3     2     4
 -0.0416565238     5     3     2     6
 0.0264369674     5     3     3     1
 -0.1836871364     5     3     3     5
 0.0272692279     5     3     4     2
 -0.0614758656     5     3     4     4
 -0.0166422144     5     3     4     6
 -0.0000000001     5     3     6     1
 -0.0140673098     5     3     6     2
 0.0331605226     5     3     6     4
 0.0000000002     5     3     6     5
 0.0051124313     5     3     6     6
 0.0322487558     5     4     1     2
 -0.0031055370     5     4     1     6
 0.0447805653     5     4     2     1
 0.0290450591     5     4     2     3
 -0.0050601510     5     4     2     5
 0.0551437737     5     4     3     2
 -0.0496022528     5     4     3     6
 0.0052792970     5     4     4     1
 0.0614758656     5     4     4     3
 -0.1492589594     5     4     4     5
 -0.0061894699     5     4     6     1
 -0.0331605226     5     4     6     3
 0.0519341156     5     4     6     5
 -0.0000000005     5     4     6     6
 0.1856899028     5     5     1     1
 0.0042499449     5     5     1     3
 0.1882332804     5     5     2     2
 0.0050601510     5     5     2     4
 -0.0115567490     5     5     2     6
 0.0042499449     5     5     3     1
 0.1836871364     5     5     3     3
 -0.0000000002     5     5     3     6
 0.0050601510     5     5     4     2
 0.1492589594     5     5     4     4
 -0.0519341156     5     5     4     6
 -0.0115567490     5     5     6     2
 -0.0000000002     5     5     6     3
 -0.0519341156     5     5     6     4
 0.1303290973     5     5     6     6
 0.0353095819     5     6     1     2
 0.0031055370     5     6     1     4
 0.0288198859     5     6     2     1
 0.0416565238     5     6     2     3
 0.0115567490     5     6     2     5
 0.0283676290     5     6     3     2
 0.0496022528     5     6     3     4
 0.0000000002     5     6     3     5
 -0.0030607268     5     6     4     1
 0.0166422144     5     6     4     3
 0.0519341156     5     6     4     5
 0.0025452107     5     6     6     1
 -0.0000000001     5     6     6     2
 -0.0051124313     5     6     6     3
 0.0000000005     5     6     6     4
 -0.1303290973     5     6     6     5
 0.0015567097     6     1     1     2
 0.0521852943     6     1     1     4
 -0.1878163904     6     1     1     6
 0.0263465776     6     1     2     3
 -0.0353095819     6     1     2     5
 0.0091236667     6     1     3     2
 -0.0178405771     6     1     3     4
 -0.0020294090     6     1     3     6
 -0.0119915505     6     1     4     3
 -0.0031055370     6     1     4     5
 -0.0069760346     6     1     5     2
 -0.0000000001     6     1     5     3
 -0.0061894699     6     1     5     4
 0.0025452107     6     1     5     6
 -0.0015567097     6     2     1     1
 0.0174762103     6     2     1     3
 -0.0288198859     6     2     1     5
 0.0344295137     6     2     2     4
 -0.1877523968     6     2     2     6
 -0.0091236667     6     2     3     1
 0.0165767613     6     2     3     3
 -0.0416565238     6     2     3     5
 -0.0000000001     6     2     3     6
 -0.0275887812     6     2     4     4
 0.0013024954     6     2     4     6
 0.0069760346     6     2     5     1
 -0.0140673098     6     2     5     3
 -0.0115567490     6     2     5     5
 -0.0000000001     6     2     5     6
 -0.0174762103     6     3     1     2
 -0.0057778704     6     3     1     4
 -0.0020294090     6     3     1     6
 -0.0263465776     6     3     2     1
 -0.0283676290     6     3     2     5
 -0.0000000001     6     3     2     6
 -0.0165767613     6     3     3     2
 0.0254323473     6     3     3     4
 -0.1805057242     6     3     3     6
 0.0119915505     6     3     4     1
 -0.0000000001     6     3     4     4
 -0.0496022528     6     3     4     5
 -0.0000000004     6     3     4     6
 0.0000000001     6     3     5     1
 0.0140673098     6     3     5     2
 -0.0331605226     6     3     5     4
 -0.0000000002     6     3     5     5
 -0.0051124313     6     3     5     6
 -0.0521852943     6     4     1     1
 0.0057778704     6     4     1     3
 0.0030607268     6     4     1     5
 -0.0344295137     6     4     2     2
 0.0013024954     6     4     2     6
 0.0178405771     6     4     3     1
 -0.0254323473     6     4     3     3
 -0.0166422144     6     4     3     5
 -0.0000000004     6     4     3     6
 0.0275887812     6     4     4     2
 0.0000000001     6     4     4     3
 -0.1691134602     6     4     4     6
 0.0061894699     6     4     5     1
 0.0331605226     6     4     5     3
 -0.0519341156     6     4     5     5
 0.0000000005     6     4     5     6
 0.0288198859     6     5     1     2
 -0.0030607268     6     5     1     4
 0.0025452107     6     5     1     6
 0.0353095819     6     5     2     1
 0.0283676290     6     5     2     3
 -0.0000000001     6     5     2     6
 0.0416565238     6     5     3     2
 0.0166422144     6     5     3     4
 -0.0051124313     6     5     3     6
 0.0031055370     6     5     4     1
 0.0496022528     6     5     4     3
 0.0000000005     6     5     4     6
 0.0115567490     6     5     5     2
 0.0000000002     6     5     5     3
 0.0519341156     6     5     5     4
 -0.1303290973     6     5     5     6
 0.1878163904     6     6     1     1
 0.0020294090     6     6     1     3
 -0.0025452107     6     6     1     5
 0.1877523968     6     6     2     2
 0.0000000001     6     6     2     3
 -0.0013024954     6     6     2     4
 0.0000000001     6     6     2     5
 0.0020294090     6     6     3     1
 0.0000000001     6     6     3     2
 0.1805057242     6     6     3     3
 0.0000000004     6     6     3     4
 0.0051124313     6     6     3     5
 -0.0013024954     6     6     4     2
 0.0000000004     6     6     4     3
 0.1691134602     6     6     4     4
 -0.0000000005     6     6     4     5
 -0.0025452107     6     6     5     1
 0.0000000001     6     6     5     2
 0.0051124313     6     6     5     3
 -0.0000000005     6     6     5     4
 0.1303290973     6     6     5     5
0.0 0 0 0 0
 0.2007186331     1     1     2     2
 -0.0254056640     1     1     2     4
 -0.0015567097     1     1     2     6
 0.2427090426     1     1     3     3
 -0.0366618501     1     1     3     5
 -0.0254056640     1     1     4     2
 0.2412303147     1     1     4     4
 -0.0521852943     1     1     4     6
 -0.0366618501     1     1     5     3
 0.1856899028     1     1     5     5
 -0.0015567097     1     1     6     2
 -0.0521852943     1     1     6     4
 0.1878163904     1     1     6     6
 -0.2007186331     1     2     2     1
 0.0671007886     1     2     2     3
 -0.0045694045     1     2     2     5
 0.0553623756     1     2     3     4
 -0.0263465776     1     2     3     6
 0.0254056640     1     2     4     1
 0.0205101505     1     2     4     3
 0.0447805653     1     2     4     5
 0.0322487558     1     2     5     4
 0.0353095819     1     2     5     6
 0.0015567097     1     2     6     1
 -0.0174762103     1     2     6     3
 0.0288198859     1     2     6     5
 -0.0671007886     1     3     2     2
 0.0357913717     1     3     2     4
 -0.0091236667     1     3     2     6
 -0.2427090426     1     3     3     1
 0.0264369674     1     3     3     5
 -0.0205101505     1     3     4     2
 -0.0060873363     1     3     4     4
 0.0178405771     1     3     4     6
 0.0366618501     1     3     5     1
 0.0042499449     1     3     5     5
 0.0174762103     1     3     6     2
 0.0057778704     1     3     6     4
 0.0020294090     1     3     6     6
 0.0254056640     1     4     2     1
 -0.0357913717     1     4     2     3
 0.0128094127     1     4     2     5
 -0.0553623756     1     4     3     2
 0.0119915505     1     4     3     6
 -0.2412303147     1     4     4     1
 0.0060873363     1     4     4     3
 0.0052792970     1     4     4     5
 -0.0322487558     1     4     5     2
 0.0031055370     1     4     5     6
 0.0521852943     1     4     6     1
 -0.0057778704     1     4     6     3
 -0.0030607268     1     4     6     5
 0.0045694045     1     5     2     2
 -0.0128094127     1     5     2     4
 0.0069760346     1     5     2     6
 0.0366618501     1     5     3     1
 -0.0264369674     1     5     3     3
 0.0000000001     1     5     3     6
 -0.0447805653     1     5     4     2
 -0.0052792970     1     5     4     4
 0.0061894699     1     5     4     6
 -0.1856899028     1     5     5     1
 -0.0042499449     1     5     5     3
 -0.0288198859     1     5     6     2
 0.0030607268     1     5     6     4
 -0.0025452107     1     5     6     6
 0.0015567097     1     6     2     1
 0.0091236667     1     6     2     3
 -0.0069760346     1     6     2     5
 0.0263465776     1     6     3     2
 -0.0119915505     1     6     3     4
 -0.0000000001     1     6     3     5
 0.0521852943     1     6     4     1
 -0.0178405771     1     6     4     3
 -0.0061894699     1     6     4     5
 -0.0353095819     1     6     5     2
 -0.0031055370     1     6     5     4
 -0.1878163904     1     6     6     1
 -0.0020294090     1     6     6     3
 0.0025452107     1     6     6     5
 -0.2007186331     2     1     1     2
 0.0254056640     2     1     1     4
 0.0015567097     2     1     1     6
 0.0671007886     2     1     3     2
 0.0205101505     2     1     3     4
 -0.0174762103     2     1     3     6
 0.0553623756     2     1     4     3
 0.0322487558     2     1     4     5
 -0.0045694045     2     1     5     2
 0.0447805653     2     1     5     4
 0.0288198859     2     1     5     6
 -0.0263465776     2     1     6     3
 0.0353095819     2     1     6     5
 0.2007186331     2     2     1     1
 -0.0671007886     2     2     1     3
 0.0045694045     2     2     1     5
 -0.0671007886     2     2     3     1
 0.2022964997     2     2     3     3
 -0.0133892921     2     2     3     5
 0.2231585344     2     2     4     4
 -0.0344295137     2     2     4     6
 0.0045694045     2     2     5     1
 -0.0133892921     2     2     5     3
 0.1882332804     2     2     5     5
 -0.0344295137     2     2     6     4
 0.1877523968     2     2     6     6
 0.0671007886     2     3     1     2
 -0.0357913717     2     3     1     4
 0.0091236667     2     3     1     6
 -0.2022964997     2     3     3     2
 0.0721952253     2     3     3     4
 -0.0165767613     2     3     3     6
 -0.0553623756     2     3     4     1
 0.0551437737     2     3     4     5
 0.0133892921     2     3     5     2
 0.0290450591     2     3     5     4
 0.0416565238     2     3     5     6
 0.0263465776     2     3     6     1
 0.0283676290     2     3     6     5
 0.0000000001     2     3     6     6
 -0.0254056640     2     4     1     1
 0.0357913717     2     4     1     3
 -0.0128094127     2     4     1     5
 -0.0205101505     2     4     3     1
 -0.0721952253     2     4     3     3
 0.0272692279     2     4     3     5
 -0.2231585344     2     4     4     2
 0.0275887812     2     4     4     6
 -0.0447805653     2     4     5     1
 -0.0290450591     2     4     5     3
 0.0050601510     2     4     5     5
 0.0344295137     2     4     6     2
 -0.0013024954     2     4     6     6
 -0.0045694045     2     5     1     2
 0.0128094127     2     5     1     4
 -0.0069760346     2     5     1     6
 0.0133892921     2     5     3     2
 -0.0272692279     2     5     3     4
 0.0140673098     2     5     3     6
 -0.0322487558     2     5     4     1
 -0.0551437737     2     5     4     3
 -0.1882332804     2     5     5     2
 -0.0050601510     2     5     5     4
 0.0115567490     2     5     5     6
 -0.0353095819     2     5     6     1
 -0.0283676290     2     5     6     3
 0.0000000001     2     5     6     6
 -0.0015567097     2     6     1     1
 -0.0091236667     2     6     1     3
 0.0069760346     2     6     1     5
 0.0174762103     2     6     3     1
 0.0165767613     2     6     3     3
 -0.0140673098     2     6     3     5
 0.0344295137     2     6     4     2
 -0.0275887812     2     6     4     4
 -0.0288198859     2     6     5     1
 -0.0416565238     2     6     5     3
 -0.0115567490     2     6     5     5
 -0.1877523968     2     6     6     2
 -0.0000000001     2     6     6     3
 0.0013024954     2     6     6     4
 -0.0000000001     2     6     6     5
 -0.2427090426     3     1     1     3
 0.0366618501     3     1     1     5
 -0.0671007886     3     1     2     2
 -0.0205101505     3     1     2     4
 0.0174762103     3     1     2     6
 0.0357913717     3     1     4     2
 -0.0060873363     3     1     4     4
 0.0057778704     3     1     4     6
 0.0264369674     3     1     5     3
 0.0042499449     3     1     5     5
 -0.0091236667     3     1     6     2
 0.0178405771     3     1     6     4
 0.0020294090     3     1     6     6
 -0.0553623756     3     2     1     4
 0.0263465776     3     2     1     6
 0.0671007886     3     2     2     1
 -0.2022964997     3     2     2     3
 0.0133892921     3     2     2     5
 -0.0357913717     3     2     4     1
 0.0721952253     3     2     4     3
 0.0290450591     3     2     4     5
 0.0551437737     3     2     5     4
 0.0283676290     3     2     5     6
 0.0091236667     3     2     6     1
 -0.0165767613     3     2     6     3
 0.0416565238     3     2     6     5
 0.0000000001     3     2     6     6
 0.2427090426     3     3     1     1
 -0.0264369674     3     3     1     5
 0.2022964997     3     3     2     2
 -0.0721952253     3     3     2     4
 0.0165767613     3     3     2     6
 -0.0721952253     3     3     4     2
 0.2160819656     3     3     4     4
 -0.0254323473     3     3     4     6
 -0.0264369674     3     3     5     1
 0.1836871364     3     3     5     5
 0.0165767613     3     3     6     2
 -0.0254323473     3     3     6     4
 0.1805057242     3     3     6     6
 0.0553623756     3     4     1     2
 -0.0119915505     3     4     1     6
 0.0205101505     3     4     2     1
 0.0721952253     3     4     2     3
 -0.0272692279     3     4     2     5
 0.0060873363     3     4     4     1
 -0.2160819656     3     4     4     3
 0.0614758656     3     4     4     5
 0.0000000001     3     4     4     6
 -0.0551437737     3     4     5     2
 0.0496022528     3     4     5     6
 -0.0178405771     3     4     6     1
 0.0254323473     3     4     6     3
 0.0166422144     3     4     6     5
 0.0000000004     3     4     6     6
 -0.0366618501     3     5     1     1
 0.0264369674     3     5     1     3
 -0.0000000001     3     5     1     6
 -0.0133892921     3     5     2     2
 0.0272692279     3     5     2     4
 -0.0140673098     3     5     2     6
 -0.0290450591     3     5     4     2
 -0.0614758656     3     5     4     4
 0.0331605226     3     5     4     6
 -0.0042499449     3     5     5     1
 -0.1836871364     3     5     5     3
 0.0000000002     3     5     5     6
 -0.0416565238     3     5     6     2
 -0.0166422144     3     5     6     4
 0.0051124313     3     5     6     6
 -0.0263465776     3     6     1     2
 0.0119915505     3     6     1     4
 0.0000000001     3     6     1     5
 -0.0174762103     3     6     2     1
 -0.0165767613     3     6     2     3
 0.0140673098     3     6     2     5
 -0.0057778704     3     6     4     1
 0.0254323473     3     6     4     3
 -0.0000000001     3     6     4     4
 -0.0331605226     3     6     4     5
 -0.0283676290     3     6     5     2
 -0.0496022528     3     6     5     4
 -0.0000000002     3     6     5     5
 -0.0020294090     3     6     6     1
 -0.0000000001     3     6     6     2
 -0.1805057242     3     6     6     3
 -0.0000000004     3     6     6     4
 -0.0051124313     3     6     6     5
 0.0254056640     4     1     1     2
 -0.2412303147     4     1     1     4
 0.0521852943     4     1     1     6