&FCI NORB= 15,NELEC= 16,MS2=0,
 ORBSYM=1,1,1,1,1,1,1,1,1,1,1,1,1,1,1
 ISYM=1,
&END
 0.3951711327     1     1     2     2
 -0.0050921344     1     1     2     4
 0.0013779492     1     1     2    11
 0.0013027647     1     1     2    15
 0.5962294854     1     1     3     3
 -0.1108442963     1     1     3     6
 0.0345161717     1     1     3     9
 0.0163206917     1     1     3    14
 -0.0050921344     1     1     4     2
 0.4822986148     1     1     4     4
 -0.0592534027     1     1     4    11
 -0.0013814859     1     1     4    15
 0.4837462877     1     1     5     5
 -0.0704978133     1     1     5    12
 -0.1108442963     1     1     6     3
 0.5637806663     1     1     6     6
 0.0482822488     1     1     6     9
 -0.0528878197     1     1     6    14
 0.4496885812     1     1     7     7
 -0.0567249514     1     1     7    13
 0.5351988809     1     1     8     8
 0.0345161717     1     1     9     3
 0.0482822488     1     1     9     6
 0.2244930937     1     1     9     9
 0.0088813659     1     1     9    14
 0.4012445844     1     1    10    10
 0.0013779492     1     1    11     2
 -0.0592534027     1     1    11     4
 0.2053118988     1     1    11    11
 -0.0030206361     1     1    11    15
 -0.0704978133     1     1    12     5
 0.2205281865     1     1    12    12
 -0.0567249514     1     1    13     7
 0.1892834038     1     1    13    13
 0.0163206917     1     1    14     3
 -0.0528878197     1     1    14     6
 0.0088813659     1     1    14     9
 0.2414477999     1     1    14    14
 0.0013027647     1     1    15     2
 -0.0013814859     1     1    15     4
 -0.0030206361     1     1    15    11
 0.2115026613     1     1    15    15
 -0.3951711327     1     2     2     1
 -0.0041820780     1     2     2     3
 0.0127639258     1     2     2     6
 0.0025756160     1     2     2     9
 -0.0027067025     1     2     2    14
 0.1502175210     1     2     3     4
 -0.0342496502     1     2     3    11
 0.0065126267     1     2     3    15
 0.0050921344     1     2     4     1
 0.1503301574     1     2     4     3
 0.1295996588     1     2     4     6
 0.0423596801     1     2     4     9
 -0.0075456574     1     2     4    14
 0.1667031064     1     2     5     7
 -0.0333125186     1     2     5    13
 0.1299330241     1     2     6     4
 -0.0106093328     1     2     6    11
 -0.0206932379     1     2     6    15
 0.1664993179     1     2     7     5
 -0.0276902897     1     2     7    12
 0.1128060359     1     2     8    10
 0.0424171551     1     2     9     4
 -0.0373188511     1     2     9    11
 -0.0133404420     1     2     9    15
 0.1125594598     1     2    10     8
 -0.0013779492     1     2    11     1
 -0.0342646580     1     2    11     3
 -0.0105206365     1     2    11     6
 -0.0372998773     1     2    11     9
 0.0238392366     1     2    11    14
 -0.0277726073     1     2    12     7
 0.0372167924     1     2    12    13
 -0.0332297350     1     2    13     5
 0.0371828958     1     2    13    12
 -0.0076129515     1     2    14     4
 0.0238588598     1     2    14    11
 -0.0308516839     1     2    14    15
 -0.0013027647     1     2    15     1
 0.0064861235     1     2    15     3
 -0.0206129425     1     2    15     6
 -0.0133244432     1     2    15     9
 -0.0308694086     1     2    15    14
 0.0041820780     1     3     2     2
 -0.0001136551     1     3     2     4
 0.0000260163     1     3     2    11
 0.0000270818     1     3     2    15
 -0.5962294854     1     3     3     1
 0.0091146382     1     3     3     6
 0.0026280919     1     3     3     9
 -0.0020320448     1     3     3    14
 -0.1503301574     1     3     4     2
 -0.0052618026     1     3     4     4
 0.0011540795     1     3     4    11
 0.0012486010     1     3     4    15
 -0.0117264406     1     3     5     5
 0.0046062961     1     3     5    12
 0.1108442963     1     3     6     1
 -0.0178130041     1     3     6     6
 -0.0049186620     1     3     6     9
 0.0031429509     1     3     6    14
 -0.0087139583     1     3     7     7
 0.0028689525     1     3     7    13
 -0.0137210705     1     3     8     8
 -0.0345161717     1     3     9     1
 -0.0023445445     1     3     9     6
 -0.0009066354     1     3     9     9
 0.0006486751     1     3     9    14
 -0.0067031707     1     3    10    10
 0.0342646580     1     3    11     2
 0.0007933356     1     3    11     4
 -0.0005600878     1     3    11    11
 -0.0001316725     1     3    11    15
 0.0030364925     1     3    12     5
 -0.0016822962     1     3    12    12
 0.0021148965     1     3    13     7
 -0.0010659461     1     3    13    13
 -0.0000000001     1     3    13    15
 -0.0163206917     1     3    14     1
 0.0022058562     1     3    14     6
 0.0009832026     1     3    14     9
 -0.0007581818     1     3    14    14
 -0.0064861235     1     3    15     2
 0.0008884630     1     3    15     4
 -0.0001556551     1     3    15    11
 -0.0000000001     1     3    15    13
 -0.0003952285     1     3    15    15
 0.0050921344     1     4     2     1
 0.0001136551     1     4     2     3
 -0.0003342688     1     4     2     6
 -0.0000681407     1     4     2     9
 0.0000729372     1     4     2    14
 -0.1502175210     1     4     3     2
 0.0002210226     1     4     3    11
 0.0002619407     1     4     3    15
 -0.4822986148     1     4     4     1
 0.0052618026     1     4     4     3
 -0.0027296934     1     4     4     6
 0.0000837844     1     4     4     9
 0.0011307872     1     4     4    14
 -0.0060274823     1     4     5     7
 0.0025338487     1     4     5    13
 -0.1299330241     1     4     6     2
 0.0001630055     1     4     6    11
 0.0011703492     1     4     6    15
 -0.0080807959     1     4     7     5
 0.0041276858     1     4     7    12
 -0.0047221780     1     4     8    10
 -0.0424171551     1     4     9     2
 -0.0004316724     1     4     9    11
 0.0001560254     1     4     9    15
 -0.0054635295     1     4    10     8
 0.0592534027     1     4    11     1
 -0.0007933356     1     4    11     3
 0.0005350221     1     4    11     6
 -0.0004984600     1     4    11     9
 0.0004008498     1     4    11    14
 0.0018779644     1     4    12     7
 -0.0003147087     1     4    12    13
 0.0018845530     1     4    13     5
 -0.0005697834     1     4    13    12
 0.0076129515     1     4    14     2
 0.0006367587     1     4    14    11
 -0.0009835501     1     4    14    15
 0.0013814859     1     4    15     1
 -0.0008884630     1     4    15     3
 0.0011857517     1     4    15     6
 0.0000426754     1     4    15     9
 -0.0011980553     1     4    15    14
 0.0001997065     1     5     2     7
 -0.0000772842     1     5     2    13
 0.0011824398     1     5     3    12
 0.0020394548     1     5     4     7
 0.0004372281     1     5     4    13
 -0.4837462877     1     5     5     1
 0.0117264406     1     5     5     3
 0.0036764198     1     5     5     6
 0.0017973174     1     5     5     9
 -0.0017980705     1     5     5    14
 0.0014371474     1     5     6    12
 -0.1664993179     1     5     7     2
 0.0080807959     1     5     7     4
 -0.0015645608     1     5     7    11
 0.0020621500     1     5     7    15
 -0.0015946359     1     5     9    12
 -0.0000013873     1     5    11     7
 0.0011501781     1     5    11    13
 0.0704978133     1     5    12     1
 -0.0030364925     1     5    12     3
 -0.0004537852     1     5    12     6
 -0.0024124236     1     5    12     9
 0.0002536690     1     5    12    14
 0.0332297350     1     5    13     2
 -0.0018845530     1     5    13     4
 0.0018109842     1     5    13    11
 0.0002410572     1     5    13    15
 -0.0006331553     1     5    14    12
 0.0004297039     1     5    15     7
 0.0006708583     1     5    15    13
 -0.0127639258     1     6     2     2
 0.0003342688     1     6     2     4
 -0.0000909735     1     6     2    11
 -0.0000829931     1     6     2    15
 0.1108442963     1     6     3     1
 -0.0091146382     1     6     3     3
 -0.0023188723     1     6     3     9
 0.0006525252     1     6     3    14
 -0.1295996588     1     6     4     2
 0.0027296934     1     6     4     4
 -0.0003894086     1     6     4    11
 -0.0001323482     1     6     4    15
 -0.0036764198     1     6     5     5
 0.0019712178     1     6     5    12
 -0.5637806663     1     6     6     1
 0.0178130041     1     6     6     3
 0.0042949139     1     6     6     9
 0.0013117809     1     6     6    14
 -0.0017472878     1     6     7     7
 0.0010174382     1     6     7    13
 -0.0040732536     1     6     8     8
 -0.0482822488     1     6     9     1
 0.0023445445     1     6     9     3
 0.0003974607     1     6     9     9
 -0.0002064247     1     6     9    14
 -0.0009555553     1     6    10    10
 0.0105206365     1     6    11     2
 -0.0005350221     1     6    11     4
 0.0006029083     1     6    11    11
 -0.0002914059     1     6    11    15
 0.0004537852     1     6    12     5
 -0.0003954377     1     6    12    12
 0.0002771503     1     6    13     7
 -0.0000274546     1     6    13    13
 0.0528878197     1     6    14     1
 -0.0022058562     1     6    14     3
 -0.0013670572     1     6    14     9
 0.0001985200     1     6    14    14
 0.0206129425     1     6    15     2
 -0.0011857517     1     6    15     4
 -0.0000506536     1     6    15    11
 0.0004292904     1     6    15    15
 -0.0001997065     1     7     2     5
 0.0000893965     1     7     2    12
 0.0004708653     1     7     3    13
 -0.0020394548     1     7     4     5
 0.0020404154     1     7     4    12
 -0.1667031064     1     7     5     2
 0.0060274823     1     7     5     4
 -0.0015706643     1     7     5    11
 0.0015329007     1     7     5    15
 0.0006320610     1     7     6    13
 -0.4496885812     1     7     7     1
 0.0087139583     1     7     7     3
 0.0017472878     1     7     7     6
 0.0014348268     1     7     7     9
 -0.0006008735     1     7     7    14
 -0.0004091880     1     7     9    13
 0.0000013873     1     7    11     5
 0.0004087746     1     7    11    12
 0.0277726073     1     7    12     2
 -0.0018779644     1     7    12     4
 0.0012734419     1     7    12    11
 -0.0000197123     1     7    12    15
 0.0567249514     1     7    13     1
 -0.0021148965     1     7    13     3
 -0.0002771503     1     7    13     6
 -0.0009721324     1     7    13     9
 0.0002990989     1     7    13    14
 -0.0000195568     1     7    14    13
 -0.0004297039     1     7    15     5
 0.0006118873     1     7    15    12
 0.0002349000     1     8     2    10
 0.0015501913     1     8     4    10
 -0.5351988809     1     8     8     1
 0.0137210705     1     8     8     3
 0.0040732536     1     8     8     6
 0.0037618886     1     8     8     9
 -0.0002652649     1     8     8    14
 -0.1125594598     1     8    10     2
 0.0054635295     1     8    10     4
 -0.0018534391     1     8    10    11
 0.0000794266     1     8    10    15
 -0.0001564751     1     8    11    10
 -0.0003294326     1     8    15    10
 -0.0025756160     1     9     2     2
 0.0000681407     1     9     2     4
 -0.0000209554     1     9     2    11
 -0.0000169695     1     9     2    15
 -0.0345161717     1     9     3     1
 -0.0026280919     1     9     3     3
 0.0023188723     1     9     3     6
 -0.0003560406     1     9     3    14
 -0.0423596801     1     9     4     2
 -0.0000837844     1     9     4     4
 0.0000633678     1     9     4    11
 0.0001208450     1     9     4    15
 -0.0017973174     1     9     5     5
 0.0008509110     1     9     5    12
 -0.0482822488     1     9     6     1
 0.0049186620     1     9     6     3
 -0.0042949139     1     9     6     6
 0.0011870716     1     9     6    14
 -0.0014348268     1     9     7     7
 0.0005888272     1     9     7    13
 -0.0037618886     1     9     8     8
 -0.2244930937     1     9     9     1
 0.0009066354     1     9     9     3
 -0.0003974607     1     9     9     6
 0.0000705520     1     9     9    14
 -0.0016168162     1     9    10    10
 0.0372998773     1     9    11     2
 0.0004984600     1     9    11     4
 -0.0000607058     1     9    11    11
 -0.0002904400     1     9    11    15
 0.0024124236     1     9    12     5
 -0.0010966686     1     9    12    12
 0.0009721324     1     9    13     7
 -0.0003603564     1     9    13    13
 -0.0088813659     1     9    14     1
 -0.0009832026     1     9    14     3
 0.0013670572     1     9    14     6
 -0.0002340086     1     9    14    14
 0.0133244432     1     9    15     2
 -0.0000426754     1     9    15     4
 -0.0000889729     1     9    15    11
 0.0000188450     1     9    15    15
 -0.0002349000     1    10     2     8
 -0.0015501913     1    10     4     8
 -0.1128060359     1    10     8     2
 0.0047221780     1    10     8     4
 -0.0018425556     1    10     8    11
 0.0004020249     1    10     8    15
 -0.4012445844     1    10    10     1
 0.0067031707     1    10    10     3
 0.0009555553     1    10    10     6
 0.0016168162     1    10    10     9
 0.0005081565     1    10    10    14
 0.0001564751     1    10    11     8
 0.0003294326     1    10    15     8
 -0.0013779492     1    11     2     1
 -0.0000260163     1    11     2     3
 0.0000909735     1    11     2     6
 0.0000209554     1    11     2     9
 -0.0000206931     1    11     2    14
 0.0342496502     1    11     3     2
 -0.0002210226     1    11     3     4
 0.0000339042     1    11     3    15
 0.0592534027     1    11     4     1
 -0.0011540795     1    11     4     3
 0.0003894086     1    11     4     6
 -0.0000633678     1    11     4     9
 -0.0002311097     1    11     4    14
 0.0015706643     1    11     5     7
 -0.0006996914     1    11     5    13
 0.0106093328     1    11     6     2
 -0.0001630055     1    11     6     4
 -0.0002786598     1    11     6    15
 0.0015645608     1    11     7     5
 -0.0009285524     1    11     7    12
 0.0018425556     1    11     8    10
 0.0373188511     1    11     9     2
 0.0004316724     1    11     9     4
 -0.0002014573     1    11     9    15
 0.0018534391     1    11    10     8
 -0.2053118988     1    11    11     1
 0.0005600878     1    11    11     3
 -0.0006029083     1    11    11     6
 0.0000607058     1    11    11     9
 -0.0000166198     1    11    11    14
 -0.0012734419     1    11    12     7
 0.0003498335     1    11    12    13
 -0.0018109842     1    11    13     5
 0.0006778039     1    11    13    12
 -0.0000000001     1    11    13    13
 -0.0238588598     1    11    14     2
 -0.0006367587     1    11    14     4
 0.0004754802     1    11    14    15
 0.0030206361     1    11    15     1
 0.0001556551     1    11    15     3
 0.0000506536     1    11    15     6
 0.0000889729     1    11    15     9
 0.0002673984     1    11    15    14
 -0.0000893965     1    12     2     7
 0.0000362698     1    12     2    13
 -0.0011824398     1    12     3     5
 -0.0020404154     1    12     4     7
 0.0002630441     1    12     4    13
 0.0704978133     1    12     5     1
 -0.0046062961     1    12     5     3
 -0.0019712178     1    12     5     6
 -0.0008509110     1    12     5     9
 0.0009194981     1    12     5    14
 -0.0014371474     1    12     6     5
 0.0276902897     1    12     7     2
 -0.0041276858     1    12     7     4
 0.0009285524     1    12     7    11
 -0.0006572472     1    12     7    15
 0.0015946359     1    12     9     5
 -0.0004087746     1    12    11     7
 -0.0003281657     1    12    11    13
 -0.2205281865     1    12    12     1
 0.0016822962     1    12    12     3
 0.0003954377     1    12    12     6
 0.0010966686     1    12    12     9
 -0.0001321153     1    12    12    14
 -0.0371828958     1    12    13     2
 0.0005697834     1    12    13     4
 -0.0006778039     1    12    13    11
 -0.0000000001     1    12    13    13
 0.0000392019     1    12    13    15
 0.0006331553     1    12    14     5
 -0.0006118873     1    12    15     7
 -0.0001357139     1    12    15    13
 -0.0000000001     1    12    15    15
 0.0000772842     1    13     2     5
 -0.0000362698     1    13     2    12
 -0.0004708653     1    13     3     7
 -0.0004372281     1    13     4     5
 -0.0002630441     1    13     4    12
 0.0333125186     1    13     5     2
 -0.0025338487     1    13     5     4
 0.0006996914     1    13     5    11
 -0.0004481193     1    13     5    15
 -0.0006320610     1    13     6     7
 0.0567249514     1    13     7     1
 -0.0028689525     1    13     7     3
 -0.0010174382     1    13     7     6
 -0.0005888272     1    13     7     9
 0.0003319261     1    13     7    14
 0.0004091880     1    13     9     7
 -0.0011501781     1    13    11     5
 0.0003281657     1    13    11    12
 -0.0372167924     1    13    12     2
 0.0003147087     1    13    12     4
 -0.0003498335     1    13    12    11
 0.0001741080     1    13    12    15
 -0.1892834038     1    13    13     1
 0.0010659461     1    13    13     3
 0.0000274546     1    13    13     6
 0.0003603564     1    13    13     9
 0.0000000001     1    13    13    11
 0.0000000001     1    13    13    12
 -0.0000817340     1    13    13    14
 -0.0000000002     1    13    13    15
 0.0000195568     1    13    14     7
 0.0000000001     1    13    15     3
 -0.0006708583     1    13    15     5
 0.0001357139     1    13    15    12
 0.0000000001     1    13    15    15
 0.0027067025     1    14     2     2
 -0.0000729372     1    14     2     4
 0.0000206931     1    14     2    11
 0.0000196291     1    14     2    15
 -0.0163206917     1    14     3     1
 0.0020320448     1    14     3     3
 -0.0006525252     1    14     3     6
 0.0003560406     1    14     3     9
 0.0075456574     1    14     4     2
 -0.0011307872     1    14     4     4
 0.0002311097     1    14     4    11
 0.0002133017     1    14     4    15
 0.0017980705     1    14     5     5
 -0.0009194981     1    14     5    12
 0.0528878197     1    14     6     1
 -0.0031429509     1    14     6     3
 -0.0013117809     1    14     6     6
 -0.0011870716     1    14     6     9
 0.0006008735     1    14     7     7
 -0.0003319261     1    14     7    13
 0.0002652649     1    14     8     8
 -0.0088813659     1    14     9     1
 -0.0006486751     1    14     9     3
 0.0002064247     1    14     9     6
 -0.0000705520     1    14     9     9
 -0.0005081565     1    14    10    10
 -0.0238392366     1    14    11     2
 -0.0004008498     1    14    11     4
 0.0000166198     1    14    11    11
 0.0002070851     1    14    11    15
 -0.0002536690     1    14    12     5
 0.0001321153     1    14    12    12
 -0.0002990989     1    14    13     7
 0.0000817340     1    14    13    13
 -0.2414477999     1    14    14     1
 0.0007581818     1    14    14     3
 -0.0001985200     1    14    14     6
 0.0002340086     1    14    14     9
 0.0308694086     1    14    15     2
 0.0011980553     1    14    15     4
 -0.0002673984     1    14    15    11
 -0.0003650448     1    14    15    15
 -0.0013027647     1    15     2     1
 -0.0000270818     1    15     2     3
 0.0000829931     1    15     2     6
 0.0000169695     1    15     2     9
 -0.0000196291     1    15     2    14
 -0.0065126267     1    15     3     2
 -0.0002619407     1    15     3     4
 -0.0000339042     1    15     3    11
 0.0013814859     1    15     4     1
 -0.0012486010     1    15     4     3
 0.0001323482     1    15     4     6
 -0.0001208450     1    15     4     9
 -0.0002133017     1    15     4    14
 -0.0015329007     1    15     5     7
 0.0004481193     1    15     5    13
 0.0206932379     1    15     6     2
 -0.0011703492     1    15     6     4
 0.0002786598     1    15     6    11
 -0.0020621500     1    15     7     5
 0.0006572472     1    15     7    12
 -0.0004020249     1    15     8    10
 0.0133404420     1    15     9     2
 -0.0001560254     1    15     9     4
 0.0002014573     1    15     9    11
 -0.0000794266     1    15    10     8
 0.0030206361     1    15    11     1
 0.0001316725     1    15    11     3
 0.0002914059     1    15    11     6
 0.0002904400     1    15    11     9
 -0.0002070851     1    15    11    14
 0.0000197123     1    15    12     7
 -0.0001741080     1    15    12    13
 0.0000000001     1    15    13     3
 -0.0002410572     1    15    13     5
 -0.0000392019     1    15    13    12
 0.0000000002     1    15    13    13
 0.0308516839     1    15    14     2
 0.0009835501     1    15    14     4
 -0.0004754802     1    15    14    11
 -0.2115026613     1    15    15     1
 0.0003952285     1    15    15     3
 -0.0004292904     1    15    15     6
 -0.0000188450     1    15    15     9
 0.0000000001     1    15    15    12
 -0.0000000001     1    15    15    13
 0.0003650448     1    15    15    14
 -0.3951711327     2     1     1     2
 0.0050921344     2     1     1     4
 -0.0013779492     2     1     1    11
 -0.0013027647     2     1     1    15
 -0.0041820780     2     1     3     2
 0.1503301574     2     1     3     4
 -0.0342646580     2     1     3    11
 0.0064861235     2     1     3    15
 0.1502175210     2     1     4     3
 0.1299330241     2     1     4     6
 0.0424171551     2     1     4     9
 -0.0076129515     2     1     4    14
 0.1664993179     2     1     5     7
 -0.0332297350     2     1     5    13
 0.0127639258     2     1     6     2
 0.1295996588     2     1     6     4
 -0.0105206365     2     1     6    11
 -0.0206129425     2     1     6    15
 0.1667031064     2     1     7     5
 -0.0277726073     2     1     7    12
 0.1125594598     2     1     8    10
 0.0025756160     2     1     9     2
 0.0423596801     2     1     9     4
 -0.0372998773     2     1     9    11
 -0.0133244432     2     1     9    15
 0.1128060359     2     1    10     8
 -0.0342496502     2     1    11     3
 -0.0106093328     2     1    11     6
 -0.0373188511     2     1    11     9
 0.0238588598     2     1    11    14
 -0.0276902897     2     1    12     7
 0.0371828958     2     1    12    13
 -0.0333125186     2     1    13     5
 0.0372167924     2     1    13    12
 -0.0027067025     2     1    14     2
 -0.0075456574     2     1    14     4
 0.0238392366     2     1    14    11
 -0.0308694086     2     1    14    15
 0.0065126267     2     1    15     3
 -0.0206932379     2     1    15     6
 -0.0133404420     2     1    15     9
 -0.0308516839     2     1    15    14
 0.3951711327     2     2     1     1
 0.0041820780     2     2     1     3
 -0.0127639258     2     2     1     6
 -0.0025756160     2     2     1     9
 0.0027067025     2     2     1    14
 0.0041820780     2     2     3     1
 0.5962493095     2     2     3     3
 -0.1110374861     2     2     3     6
 0.0344718535     2     2     3     9
 0.0163688376     2     2     3    14
 0.4821987746     2     2     4     4
 -0.0592164754     2     2     4    11
 -0.0013541403     2     2     4    15
 0.4839984217     2     2     5     5
 -0.0705976550     2     2     5    12
 -0.0127639258     2     2     6     1
 -0.1110374861     2     2     6     3
 0.5645853253     2     2     6     6
 0.0484449277     2     2     6     9
 -0.0530598435     2     2     6    14
 0.4495403114     2     2     7     7
 -0.0566624494     2     2     7    13
 0.5355497416     2     2     8     8
 -0.0025756160     2     2     9     1
 0.0344718535     2     2     9     3
 0.0484449277     2     2     9     6
 0.2245313364     2     2     9     9
 0.0088415164     2     2     9    14
 0.4011114095     2     2    10    10
 -0.0592164754     2     2    11     4
 0.2053049696     2     2    11    11
 -0.0030293109     2     2    11    15
 -0.0705976550     2     2    12     5
 0.2205778700     2     2    12    12
 -0.0566624494     2     2    13     7
 0.1892623385     2     2    13    13
 0.0027067025     2     2    14     1
 0.0163688376     2     2    14     3
 -0.0530598435     2     2    14     6
 0.0088415164     2     2    14     9
 0.2414906615     2     2    14    14
 -0.0013541403     2     2    15     4
 -0.0030293109     2     2    15    11
 0.2114972815     2     2    15    15
 -0.0041820780     2     3     1     2
 0.0001136551     2     3     1     4
 -0.0000260163     2     3     1    11
 -0.0000270818     2     3     1    15
 -0.5962493095     2     3     3     2
 0.0037769024     2     3     3     4
 -0.0013357796     2     3     3    11
 -0.0012805181     2     3     3    15
 -0.1502175210     2     3     4     1
 -0.0109909537     2     3     4     6
 -0.0025735950     2     3     4     9
 0.0017350934     2     3     4    14
 -0.0132426470     2     3     5     7
 0.0042846816     2     3     5    13
 0.1110374861     2     3     6     2
 -0.0120375209     2     3     6     4
 0.0029424790     2     3     6    11
 0.0024838959     2     3     6    15
 -0.0109277494     2     3     7     5
 0.0037333256     2     3     7    12
 -0.0114590836     2     3     8    10
 -0.0344718535     2     3     9     2
 -0.0016907483     2     3     9     4
 0.0011360552     2     3     9    11
 0.0005686891     2     3     9    15
 -0.0076270502     2     3    10     8
 0.0342496502     2     3    11     1
 0.0015792040     2     3    11     6
 0.0011507000     2     3    11     9
 -0.0008266212     2     3    11    14
 0.0032694081     2     3    12     7
 -0.0019702641     2     3    12    13
 0.0025436168     2     3    13     5
 -0.0017714110     2     3    13    12
 -0.0163688376     2     3    14     2
 0.0013944729     2     3    14     4
 -0.0009798974     2     3    14    11
 0.0002950584     2     3    14    15
 -0.0065126267     2     3    15     1
 0.0014202177     2     3    15     6
 0.0006215473     2     3    15     9
 0.0004112731     2     3    15    14
 0.0000000001     2     3    15    15
 -0.0050921344     2     4     1     1
 -0.0001136551     2     4     1     3
 0.0003342688     2     4     1     6
 0.0000681407     2     4     1     9
 -0.0000729372     2     4     1    14
 -0.1503301574     2     4     3     1
 -0.0037769024     2     4     3     3
 0.0010373739     2     4     3     6
 -0.0006340065     2     4     3     9
 0.0001145046     2     4     3    14
 -0.4821987746     2     4     4     2
 0.0000150905     2     4     4    11
 0.0002703732     2     4     4    15
 -0.0097633791     2     4     5     5
 0.0040948783     2     4     5    12
 -0.1295996588     2     4     6     1
 0.0120375209     2     4     6     3
 -0.0163169950     2     4     6     6
 -0.0016517300     2     4     6     9
 0.0037660749     2     4     6    14
 -0.0094395982     2     4     7     7
 0.0034439288     2     4     7    13
 -0.0117741499     2     4     8     8
 -0.0423596801     2     4     9     1
 0.0016907483     2     4     9     3
 -0.0026454098     2     4     9     6
 -0.0006550191     2     4     9     9
 0.0005674596     2     4     9    14
 -0.0067266981     2     4    10    10
 0.0592164754     2     4    11     2
 0.0000388724     2     4    11    11
 -0.0001968261     2     4    11    15
 0.0025476650     2     4    12     5
 -0.0014929521     2     4    12    12
 0.0020458136     2     4    13     7
 -0.0009365576     2     4    13    13
 0.0075456574     2     4    14     1
 -0.0013944729     2     4    14     3
 0.0018813145     2     4    14     6
 -0.0000367492     2     4    14     9
 -0.0004999610     2     4    14    14
 0.0013541403     2     4    15     2
 -0.0001667222     2     4    15    11
 -0.0000506887     2     4    15    15
 -0.0001997065     2     5     1     7
 0.0000772842     2     5     1    13
 -0.0023010629     2     5     3     7
 0.0013666577     2     5     3    13
 0.0012246538     2     5     4    12
 -0.4839984217     2     5     5     2
 0.0097633791     2     5     5     4
 -0.0025584591     2     5     5    11
 0.0006835994     2     5     5    15
 0.0009548468     2     5     6     7
 0.0002905243     2     5     6    13
 -0.1667031064     2     5     7     1
 0.0109277494     2     5     7     3
 -0.0033407470     2     5     7     6
 0.0004830602     2     5     7     9
 0.0004501780     2     5     7    14
 0.0003731191     2     5     9     7
 -0.0005762082     2     5     9    13
 0.0004303922     2     5    11    12
 0.0705976550     2     5    12     2
 -0.0025476650     2     5    12     4
 0.0015168005     2     5    12    11
 0.0001623000     2     5    12    15
 0.0333125186     2     5    13     1
 -0.0025436168     2     5    13     3
 0.0005172612     2     5    13     6
 -0.0008239399     2     5    13     9
 0.0001066833     2     5    13    14
 0.0003393826     2     5    14     7
 -0.0001777887     2     5    14    13
 0.0004102284     2     5    15    12
 0.0127639258     2     6     1     2
 -0.0003342688     2     6     1     4
 0.0000909735     2     6     1    11
 0.0000829931     2     6     1    15
 0.1110374861     2     6     3     2
 -0.0010373739     2     6     3     4
 0.0011054025     2     6     3    11
 0.0009231788     2     6     3    15
 -0.1299330241     2     6     4     1
 0.0109909537     2     6     4     3
 0.0013424655     2     6     4     9
 0.0015747599     2     6     4    14
 0.0042783821     2     6     5     7
 -0.0003718368     2     6     5    13
 -0.5645853253     2     6     6     2
 0.0163169950     2     6     6     4
 -0.0038356556     2     6     6    11
 -0.0016036251     2     6     6    15
 0.0033407470     2     6     7     5
 0.0007547637     2     6     7    12
 0.0049091174     2     6     8    10
 -0.0484449277     2     6     9     2
 0.0026454098     2     6     9     4
 -0.0022052162     2     6     9    11
 -0.0005965995     2     6     9    15
 0.0022183625     2     6    10     8
 0.0106093328     2     6    11     1
 -0.0015792040     2     6    11     3
 -0.0018802797     2     6    11     9
 0.0013363693     2     6    11    14
 -0.0009038969     2     6    12     7
 0.0018139059     2     6    12    13
 -0.0005172612     2     6    13     5
 0.0014176047     2     6    13    12
 0.0530598435     2     6    14     2