&FCI NORB=  6,NELEC= 10,MS2=0,
 ORBSYM=1,1,1,1,1,1
 ISYM=1,
&END
 0.9852272643     1     1     2     2
 0.0663957306     1     1     2     4
 -0.0925896042     1     1     2     6
 0.8729711230     1     1     3     3
 0.0663957306     1     1     4     2
 0.9489623148     1     1     4     4
 0.0472199921     1     1     4     6
 0.9910664641     1     1     5     5
 -0.0925896042     1     1     6     2
 0.0472199921     1     1     6     4
 0.2794192939     1     1     6     6
 -0.9852272643     1     2     2     1
 0.0069980293     1     2     2     4
 0.0006443201     1     2     2     6
 -0.0310329128     1     2     3     3
 -0.0663957306     1     2     4     1
 -0.0356878199     1     2     4     4
 -0.0050523019     1     2     4     6
 -0.0402521321     1     2     5     5
 0.0925896042     1     2     6     1
 -0.0046936833     1     2     6     4
 -0.0010732868     1     2     6     6
 -0.8729711230     1     3     3     1
 0.0310329128     1     3     3     2
 0.0105994135     1     3     3     4
 -0.0035836382     1     3     3     6
 -0.0663957306     1     4     2     1
 -0.0069980293     1     4     2     2
 0.0001283678     1     4     2     6
 -0.0105994135     1     4     3     3
 -0.9489623148     1     4     4     1
 0.0356878199     1     4     4     2
 -0.0067794222     1     4     4     6
 -0.0135493878     1     4     5     5
 -0.0472199921     1     4     6     1
 0.0046936833     1     4     6     2
 -0.0025780613     1     4     6     6
 -0.9910664641     1     5     5     1
 0.0402521321     1     5     5     2
 0.0135493878     1     5     5     4
 -0.0063194873     1     5     5     6
 0.0925896042     1     6     2     1
 -0.0006443201     1     6     2     2
 -0.0001283678     1     6     2     4
 0.0035836382     1     6     3     3
 -0.0472199921     1     6     4     1
 0.0050523019     1     6     4     2
 0.0067794222     1     6     4     4
 0.0063194873     1     6     5     5
 -0.2794192939     1     6     6     1
 0.0010732868     1     6     6     2
 0.0025780613     1     6     6     4
 -0.9852272643     2     1     1     2
 -0.0663957306     2     1     1     4
 0.0925896042     2     1     1     6
 -0.0310329128     2     1     3     3
 0.0069980293     2     1     4     2
 -0.0356878199     2     1     4     4
 -0.0046936833     2     1     4     6
 -0.0402521321     2     1     5     5
 0.0006443201     2     1     6     2
 -0.0050523019     2     1     6     4
 -0.0010732868     2     1     6     6
 0.9852272643     2     2     1     1
 -0.0069980293     2     2     1     4
 -0.0006443201     2     2     1     6
 0.5290524969     2     2     3     3
 -0.0069980293     2     2     4     1
 0.5499060487     2     2     4     4
 0.0202429107     2     2     4     6
 0.5750225950     2     2     5     5
 -0.0006443201     2     2     6     1
 0.0202429107     2     2     6     4
 0.2556775459     2     2     6     6
 0.0310329128     2     3     3     1
 -0.5290524969     2     3     3     2
 -0.0016485965     2     3     3     4
 0.0441488958     2     3     3     6
 0.0663957306     2     4     1     1
 0.0069980293     2     4     1     2
 -0.0001283678     2     4     1     6
 0.0016485965     2     4     3     3
 0.0356878199     2     4     4     1
 -0.5499060487     2     4     4     2
 0.0436101137     2     4     4     6
 0.0039789040     2     4     5     5
 0.0050523019     2     4     6     1
 -0.0202429107     2     4     6     2
 -0.0101717356     2     4     6     6
 0.0402521321     2     5     5     1
 -0.5750225950     2     5     5     2
 -0.0039789040     2     5     5     4
 0.0439829037     2     5     5     6
 -0.0925896042     2     6     1     1
 0.0006443201     2     6     1     2
 0.0001283678     2     6     1     4
 -0.0441488958     2     6     3     3
 0.0046936833     2     6     4     1
 -0.0202429107     2     6     4     2
 -0.0436101137     2     6     4     4
 -0.0439829037     2     6     5     5
 0.0010732868     2     6     6     1
 -0.2556775459     2     6     6     2
 0.0101717356     2     6     6     4
 -0.8729711230     3     1     1     3
 0.0310329128     3     1     2     3
 0.0105994135     3     1     4     3
 -0.0035836382     3     1     6     3
 0.0310329128     3     2     1     3
 -0.5290524969     3     2     2     3
 -0.0016485965     3     2     4     3
 0.0441488958     3     2     6     3
 0.8729711230     3     3     1     1
 -0.0310329128     3     3     1     2
 -0.0105994135     3     3     1     4
 0.0035836382     3     3     1     6
 -0.0310329128     3     3     2     1
 0.5290524969     3     3     2     2
 0.0016485965     3     3     2     4
 -0.0441488958     3     3     2     6
 -0.0105994135     3     3     4     1
 0.0016485965     3     3     4     2
 0.5604306757     3     3     4     4
 0.0237390602     3     3     4     6
 0.5817015078     3     3     5     5
 0.0035836382     3     3     6     1
 -0.0441488958     3     3     6     2
 0.0237390602     3     3     6     4
 0.2579654973     3     3     6     6
 0.0105994135     3     4     1     3
 -0.0016485965     3     4     2     3
 -0.5604306757     3     4     4     3
 -0.0237390602     3     4     6     3
 -0.5817015078     3     5     5     3
 -0.0035836382     3     6     1     3
 0.0441488958     3     6     2     3
 -0.0237390602     3     6     4     3
 -0.2579654973     3     6     6     3
 -0.0663957306     4     1     1     2
 -0.9489623148     4     1     1     4
 -0.0472199921     4     1     1     6
 -0.0069980293     4     1     2     2
 0.0356878199     4     1     2     4
 0.0046936833     4     1     2     6
 -0.0105994135     4     1     3     3
 -0.0135493878     4     1     5     5
 0.0001283678     4     1     6     2
 -0.0067794222     4     1     6     4
 -0.0025780613     4     1     6     6
 0.0663957306     4     2     1     1
 0.0356878199     4     2     1     4
 0.0050523019     4     2     1     6
 0.0069980293     4     2     2     1
 -0.5499060487     4     2     2     4
 -0.0202429107     4     2     2     6
 0.0016485965     4     2     3     3
 0.0039789040     4     2     5     5
 -0.0001283678     4     2     6     1
 0.0436101137     4     2     6     4
 -0.0101717356     4     2     6     6
 0.0105994135     4     3     3     1
 -0.0016485965     4     3     3     2
 -0.5604306757     4     3     3     4
 -0.0237390602     4     3     3     6
 0.9489623148     4     4     1     1
 -0.0356878199     4     4     1     2
 0.0067794222     4     4     1     6
 -0.0356878199     4     4     2     1
 0.5499060487     4     4     2     2
 -0.0436101137     4     4     2     6
 0.5604306757     4     4     3     3
 0.5990514314     4     4     5     5
 0.0067794222     4     4     6     1
 -0.0436101137     4     4     6     2
 0.2469540185     4     4     6     6
 0.0135493878     4     5     5     1
 -0.0039789040     4     5     5     2
 -0.5990514314     4     5     5     4
 -0.0272331583     4     5     5     6
 0.0472199921     4     6     1     1
 -0.0050523019     4     6     1     2
 -0.0067794222     4     6     1     4
 -0.0046936833     4     6     2     1
 0.0202429107     4     6     2     2
 0.0436101137     4     6     2     4
 0.0237390602     4     6     3     3
 0.0272331583     4     6     5     5
 0.0025780613     4     6     6     1
 0.0101717356     4     6     6     2
 -0.2469540185     4     6     6     4
 -0.9910664641     5     1     1     5
 0.0402521321     5     1     2     5
 0.0135493878     5     1     4     5
 -0.0063194873     5     1     6     5
 0.0402521321     5     2     1     5
 -0.5750225950     5     2     2     5
 -0.0039789040     5     2     4     5
 0.0439829037     5     2     6     5
 -0.5817015078     5     3     3     5
 0.0135493878     5     4     1     5
 -0.0039789040     5     4     2     5
 -0.5990514314     5     4     4     5
 -0.0272331583     5     4     6     5
 0.9910664641     5     5     1     1
 -0.0402521321     5     5     1     2
 -0.0135493878     5     5     1     4
 0.0063194873     5     5     1     6
 -0.0402521321     5     5     2     1
 0.5750225950     5     5     2     2
 0.0039789040     5     5     2     4
 -0.0439829037     5     5     2     6
 0.5817015078     5     5     3     3
 -0.0135493878     5     5     4     1
 0.0039789040     5     5     4     2
 0.5990514314     5     5     4     4
 0.0272331583     5     5     4     6
 0.0063194873     5     5     6     1
 -0.0439829037     5     5     6     2
 0.0272331583     5     5     6     4
 0.2532237957     5     5     6     6
 -0.0063194873     5     6     1     5
 0.0439829037     5     6     2     5
 -0.0272331583     5     6     4     5
 -0.2532237957     5     6     6     5
 0.0925896042     6     1     1     2
 -0.0472199921     6     1     1     4
 -0.2794192939     6     1     1     6
 -0.0006443201     6     1     2     2
 0.0050523019     6     1     2     4
 0.0010732868     6     1     2     6
 0.0035836382     6     1     3     3
 -0.0001283678     6     1     4     2
 0.0067794222     6     1     4     4
 0.0025780613     6     1     4     6
 0.0063194873     6     1     5     5
 -0.0925896042     6     2     1     1
 0.0046936833     6     2     1     4
 0.0010732868     6     2     1     6
 0.0006443201     6     2     2     1
 -0.0202429107     6     2     2     4
 -0.2556775459     6     2     2     6
 -0.0441488958     6     2     3     3
 0.0001283678     6     2     4     1
 -0.0436101137     6     2     4     4
 0.0101717356     6     2     4     6
 -0.0439829037     6     2     5     5
 -0.0035836382     6     3     3     1
 0.0441488958     6     3     3     2
 -0.0237390602     6     3     3     4
 -0.2579654973     6     3     3     6
 0.0472199921     6     4     1     1
 -0.0046936833     6     4     1     2
 0.0025780613     6     4     1     6
 -0.0050523019     6     4     2     1
 0.0202429107     6     4     2     2
 0.0101717356     6     4     2     6
 0.0237390602     6     4     3     3
 -0.0067794222     6     4     4     1
 0.0436101137     6     4     4     2
 -0.2469540185     6     4     4     6
 0.0272331583     6     4     5     5
 -0.0063194873     6     5     5     1
 0.0439829037     6     5     5     2
 -0.0272331583     6     5     5     4
 -0.2532237957     6     5     5     6
 0.2794192939     6     6     1     1
 -0.0010732868     6     6     1     2
 -0.0025780613     6     6     1     4
 -0.0010732868     6     6     2     1
 0.2556775459     6     6     2     2
 -0.0101717356     6     6     2     4
 0.2579654973     6     6     3     3
 -0.0025780613     6     6     4     1
 -0.0101717356     6     6     4     2
 0.2469540185     6     6     4     4
 0.2532237957     6     6     5     5
0.0 0 0 0 0
 0.9852272643     1     1     2     2
 0.0663957306     1     1     2     4
 -0.0925896042     1     1     2     6
 0.8729711230     1     1     3     3
 0.0663957306     1     1     4     2
 0.9489623148     1     1     4     4
 0.0472199921     1     1     4     6
 0.9910664641     1     1     5     5
 -0.0925896042     1     1     6     2
 0.0472199921     1     1     6     4
 0.2794192939     1     1     6     6
 -0.9852272643     1     2     2     1
 0.0069980293     1     2     2     4
 0.0006443201     1     2     2     6
 -0.0310329128     1     2     3     3
 -0.0663957306     1     2     4     1
 -0.0356878199     1     2     4     4
 -0.0050523019     1     2     4     6
 -0.0402521321     1     2     5     5
 0.0925896042     1     2     6     1
 -0.0046936833     1     2     6     4
 -0.0010732868     1     2     6     6
 -0.8729711230     1     3     3     1
 0.0310329128     1     3     3     2
 0.0105994135     1     3     3     4
 -0.0035836382     1     3     3     6
 -0.0663957306     1     4     2     1
 -0.0069980293     1     4     2     2
 0.0001283678     1     4     2     6
 -0.0105994135     1     4     3     3
 -0.9489623148     1     4     4     1
 0.0356878199     1     4     4     2
 -0.0067794222     1     4     4     6
 -0.0135493878     1     4     5     5
 -0.0472199921     1     4     6     1
 0.0046936833     1     4     6     2
 -0.0025780613     1     4     6     6
 -0.9910664641     1     5     5     1
 0.0402521321     1     5     5     2
 0.0135493878     1     5     5     4
 -0.0063194873     1     5     5     6
 0.0925896042     1     6     2     1
 -0.0006443201     1     6     2     2
 -0.0001283678     1     6     2     4
 0.0035836382     1     6     3     3
 -0.0472199921     1     6     4     1
 0.0050523019     1     6     4     2
 0.0067794222     1     6     4     4
 0.0063194873     1     6     5     5
 -0.2794192939     1     6     6     1
 0.0010732868     1     6     6     2
 0.0025780613     1     6     6     4
 -0.9852272643     2     1     1     2
 -0.0663957306     2     1     1     4
 0.0925896042     2     1     1     6
 -0.0310329128     2     1     3     3
 0.0069980293     2     1     4     2
 -0.0356878199     2     1     4     4
 -0.0046936833     2     1     4     6
 -0.0402521321     2     1     5     5
 0.0006443201     2     1     6     2
 -0.0050523019     2     1     6     4
 -0.0010732868     2     1     6     6
 0.9852272643     2     2     1     1
 -0.0069980293     2     2     1     4
 -0.0006443201     2     2     1     6
 0.5290524969     2     2     3     3
 -0.0069980293     2     2     4     1
 0.5499060487     2     2     4     4
 0.0202429107     2     2     4     6
 0.5750225950     2     2     5     5
 -0.0006443201     2     2     6     1
 0.0202429107     2     2     6     4
 0.2556775459     2     2     6     6
 0.0310329128     2     3     3     1
 -0.5290524969     2     3     3     2
 -0.0016485965     2     3     3     4
 0.0441488958     2     3     3     6
 0.0663957306     2     4     1     1
 0.0069980293     2     4     1     2
 -0.0001283678     2     4     1     6
 0.0016485965     2     4     3     3
 0.0356878199     2     4     4     1
 -0.5499060487     2     4     4     2
 0.0436101137     2     4     4     6
 0.0039789040     2     4     5     5
 0.0050523019     2     4     6     1
 -0.0202429107     2     4     6     2
 -0.0101717356     2     4     6     6
 0.0402521321     2     5     5     1
 -0.5750225950     2     5     5     2
 -0.0039789040     2     5     5     4
 0.0439829037     2     5     5     6
 -0.0925896042     2     6     1     1
 0.0006443201     2     6     1     2
 0.0001283678     2     6     1     4
 -0.0441488958     2     6     3     3
 0.0046936833     2     6     4     1
 -0.0202429107     2     6     4     2
 -0.0436101137     2     6     4     4
 -0.0439829037     2     6     5     5
 0.0010732868     2     6     6     1
 -0.2556775459     2     6     6     2
 0.0101717356     2     6     6     4
 -0.8729711230     3     1     1     3
 0.0310329128     3     1     2     3
 0.0105994135     3     1     4     3
 -0.0035836382     3     1     6     3
 0.0310329128     3     2     1     3
 -0.5290524969     3     2     2     3
 -0.0016485965     3     2     4     3
 0.0441488958     3     2     6     3
 0.8729711230     3     3     1     1
 -0.0310329128     3     3     1     2
 -0.0105994135     3     3     1     4
 0.0035836382     3     3     1     6
 -0.0310329128     3     3     2     1
 0.5290524969     3     3     2     2
 0.0016485965     3     3     2     4
 -0.0441488958     3     3     2     6
 -0.0105994135     3     3     4     1
 0.0016485965     3     3     4     2
 0.5604306757     3     3     4     4
 0.0237390602     3     3     4     6
 0.5817015078     3     3     5     5
 0.0035836382     3     3     6     1
 -0.0441488958     3     3     6     2
 0.0237390602     3     3     6     4
 0.2579654973     3     3     6     6
 0.0105994135     3     4     1     3
 -0.0016485965     3     4     2     3
 -0.5604306757     3     4     4     3
 -0.0237390602     3     4     6     3
 -0.5817015078     3     5     5     3
 -0.0035836382     3     6     1     3
 0.0441488958     3     6     2     3
 -0.0237390602     3     6     4     3
 -0.2579654973     3     6     6     3
 -0.0663957306     4     1     1     2
 -0.9489623148     4     1     1     4
 -0.0472199921     4     1     1     6
 -0.0069980293     4     1     2     2
 0.0356878199     4     1     2     4
 0.0046936833     4     1     2     6
 -0.0105994135     4     1     3     3
 -0.0135493878     4     1     5     5
 0.0001283678     4     1     6     2
 -0.0067794222     4     1     6     4
 -0.0025780613     4     1     6     6
 0.0663957306     4     2     1     1
 0.0356878199     4     2     1     4
 0.0050523019     4     2     1     6
 0.0069980293     4     2     2     1
 -0.5499060487     4     2     2     4
 -0.0202429107     4     2     2     6
 0.0016485965     4     2     3     3
 0.0039789040     4     2     5     5
 -0.0001283678     4     2     6     1
 0.0436101137     4     2     6     4
 -0.0101717356     4     2     6     6
 0.0105994135     4     3     3     1
 -0.0016485965     4     3     3     2
 -0.5604306757     4     3     3     4
 -0.0237390602     4     3     3     6
 0.9489623148     4     4     1     1
 -0.0356878199     4     4     1     2
 0.0067794222     4     4     1     6
 -0.0356878199     4     4     2     1
 0.5499060487     4     4     2     2
 -0.0436101137     4     4     2     6
 0.5604306757     4     4     3     3
 0.5990514314     4     4     5     5
 0.0067794222     4     4     6     1
 -0.0436101137     4     4     6     2
 0.2469540185     4     4     6     6
 0.0135493878     4     5     5     1
 -0.0039789040     4     5     5     2
 -0.5990514314     4     5     5     4
 -0.0272331583     4     5     5     6
 0.0472199921     4     6     1     1
 -0.0050523019     4     6     1     2
 -0.0067794222     4     6     1     4
 -0.0046936833     4     6     2     1
 0.0202429107     4     6     2     2
 0.0436101137     4     6     2     4
 0.0237390602     4     6     3     3
 0.0272331583     4     6     5     5
 0.0025780613     4     6     6     1
 0.0101717356     4     6     6     2
 -0.2469540185     4     6     6     4
 -0.9910664641     5     1     1     5
 0.0402521321     5     1     2     5
 0.0135493878     5     1     4     5
 -0.0063194873     5     1     6     5
 0.0402521321     5     2     1     5
 -0.5750225950     5     2     2     5
 -0.0039789040     5     2     4     5
 0.0439829037     5     2     6     5
 -0.5817015078     5     3     3     5
 0.0135493878     5     4     1     5
 -0.0039789040     5     4     2     5
 -0.5990514314     5     4     4     5
 -0.0272331583     5     4     6     5
 0.9910664641     5     5     1     1
 -0.0402521321     5     5     1     2
 -0.0135493878     5     5     1     4
 0.0063194873     5     5     1     6
 -0.0402521321     5     5     2     1
 0.5750225950     5     5     2     2
 0.0039789040     5     5     2     4
 -0.0439829037     5     5     2     6
 0.5817015078     5     5     3     3
 -0.0135493878     5     5     4     1
 0.0039789040     5     5     4     2
 0.5990514314     5     5     4     4
 0.0272331583     5     5     4     6
 0.0063194873     5     5     6     1
 -0.0439829037     5     5     6     2
 0.0272331583     5     5     6     4
 0.2532237957     5     5     6     6
 -0.0063194873     5     6     1     5
 0.0439829037     5     6     2     5
 -0.0272331583     5     6     4     5
 -0.2532237957     5     6     6     5
 0.0925896042     6     1     1     2
 -0.0472199921     6     1     1     4
 -0.2794192939     6     1     1     6
 -0.0006443201     6     1     2     2
 0.0050523019     6     1     2     4
 0.0010732868     6     1     2     6
 0.0035836382     6     1     3     3
 -0.0001283678     6     1     4     2
 0.0067794222     6     1     4     4
 0.0025780613     6     1     4     6
 0.0063194873     6     1     5     5
 -0.0925896042     6     2     1     1
 0.0046936833     6     2     1     4
 0.0010732868     6     2     1     6
 0.0006443201     6     2     2     1
 -0.0202429107     6     2     2     4
 -0.2556775459     6     2     2     6
 -0.0441488958     6     2     3     3
 0.0001283678     6     2     4     1
 -0.0436101137     6     2     4     4
 0.0101717356     6     2     4     6
 -0.0439829037     6     2     5     5
 -0.0035836382     6     3     3     1
 0.0441488958     6     3     3     2
 -0.0237390602     6     3     3     4
 -0.2579654973     6     3     3     6
 0.0472199921     6     4     1     1
 -0.0046936833     6     4     1     2
 0.0025780613     6     4     1     6
 -0.0050523019     6     4     2     1
 0.0202429107     6     4     2     2
 0.0101717356     6     4     2     6
 0.0237390602     6     4     3     3
 -0.0067794222     6     4     4     1
 0.0436101137     6     4     4     2
 -0.2469540185     6     4     4     6
 0.0272331583     6     4     5     5
 -0.0063194873     6     5     5     1
 0.0439829037     6     5     5     2
 -0.0272331583     6     5     5     4
 -0.2532237957     6     5     5     6
 0.2794192939     6     6     1     1
 -0.0010732868     6     6     1     2
 -0.0025780613     6     6     1     4
 -0.0010732868     6     6     2     1
 0.2556775459     6     6     2     2
 -0.0101717356     6     6     2     4
 0.2579654973     6     6     3     3
 -0.0025780613     6     6     4     1
 -0.0101717356     6     6     4     2
 0.2469540185     6     6     4     4
 0.2532237957     6     6     5     5
0.0 0 0 0 0
 4.7152652546     1     1     1     1
 -0.4293702058     1     1     1     2
 -0.1359429762     1     1     1     4
 0.0924107485     1     1     1     6
 -0.4293702058     1     1     2     1
 1.0486872531     1     1     2     2
 0.0824123068     1     1     2     4
 -0.1084980469     1     1     2     6
 0.8940748942     1     1     3     3
 -0.1359429762     1     1     4     1
 0.0824123068     1     1     4     2
 0.9796901622     1     1     4     4
 0.0479074040     1     1     4     6
 1.0215144309     1     1     5     5
 0.0924107485     1     1     6     1
 -0.1084980469     1     1     6     2
 0.0479074040     1     1     6     4
 0.2834238505     1     1     6     6
 -0.4293702058     1     2     1     1
 0.0601070000     1     2     1     2
 0.0160637214     1     2     1     4
 -0.0150838632     1     2     1     6
 0.0634599888     1     2     2     1
 -0.0145428037     1     2     2     2
 -0.0075481366     1     2     2     4
 0.0015284213     1     2     2     6
 -0.0071539692     1     2     3     3
 0.0160165762     1     2     4     1
 -0.0077934695     1     2     4     2
 -0.0130355826     1     2     4     4
 0.0008165564     1     2     4     6
 -0.0116542971     1     2     5     5
 -0.0159084427     1     2     6     1
 0.0006970407     1     2     6     2
 0.0009416969     1     2     6     4
 -0.0006448072     1     2     6     6
 0.0170586935     1     3     1     3
 0.0231755234     1     3     2     3
 0.0211037712     1     3     3     1
 0.0238789436     1     3     3     2
 0.0030089081     1     3     3     4
 -0.0031468804     1     3     3     6
 0.0026578544     1     3     4     3
 -0.0030169106     1     3     6     3
 -0.1359429762     1     4     1     1
 0.0160637214     1     4     1     2
 0.0263392885     1     4     1     4
 0.0003966834     1     4     1     6
 0.0160165762     1     4     2     1
 -0.0145461659     1     4     2     2
 0.0221062343     1     4     2     4
 0.0057523262     1     4     2     6
 -0.0075905054     1     4     3     3
 0.0307278474     1     4     4     1
 0.0226522373     1     4     4     2
 0.0081070498     1     4     4     4
 -0.0022599499     1     4     4     6
 -0.0047439901     1     4     5     5
 0.0006874119     1     4     6     1
 0.0056353802     1     4     6     2
 -0.0019322319     1     4     6     4
 -0.0031013129     1     4     6     6
 0.0256747379     1     5     1     5
 0.0283761200     1     5     2     5
 0.0085245691     1     5     4     5
 0.0304479668     1     5     5     1
 0.0285978350     1     5     5     2
 0.0088053977     1     5     5     4
 -0.0046160614     1     5     5     6
 -0.0040842825     1     5     6     5
 0.0924107485     1     6     1     1
 -0.0150838632     1     6     1     2
 0.0003966834     1     6     1     4
 0.0044724841     1     6     1     6
 -0.0159084427     1     6     2     1
 0.0008841012     1     6     2     2
 0.0056239584     1     6     2     4
 0.0007434318     1     6     2     6
 0.0004367578     1     6     3     3
 0.0006874119     1     6     4     1
 0.0058688583     1     6     4     2
 0.0045194723     1     6     4     4
 -0.0008454558     1     6     4     6
 0.0017034259     1     6     5     5
 0.0040045566     1     6     6     1
 0.0004284796     1     6     6     2
 -0.0005232516     1     6     6     4
 -0.0003111976     1     6     6     6
 -0.4293702058     2     1     1     1
 0.0634599888     2     1     1     2
 0.0160165762     2     1     1     4
 -0.0159084427     2     1     1     6
 0.0601070000     2     1     2     1
 -0.0145428037     2     1     2     2
 -0.0077934695     2     1     2     4
 0.0006970407     2     1     2     6
 -0.0071539692     2     1     3     3
 0.0160637214     2     1     4     1
 -0.0075481366     2     1     4     2
 -0.0130355826     2     1     4     4
 0.0009416969     2     1     4     6
 -0.0116542971     2     1     5     5
 -0.0150838632     2     1     6     1
 0.0015284213     2     1     6     2
 0.0008165564     2     1     6     4
 -0.0006448072     2     1     6     6
 1.0486872531     2     2     1     1
 -0.0145428037     2     2     1     2
 -0.0145461659     2     2     1     4
 0.0008841012     2     2     1     6
 -0.0145428037     2     2     2     1
 0.7443364193     2     2     2     2
 -0.0178276087     2     2     2     4
 -0.0649118057     2     2     2     6
 0.6756403325     2     2     3     3
 -0.0145461659     2     2     4     1
 -0.0178276087     2     2     4     2
 0.6673261572     2     2     4     4
 0.0326376032     2     2     4     6
 0.6943448826     2     2     5     5
 0.0008841012     2     2     6     1
 -0.0649118057     2     2     6     2
 0.0326376032     2     2     6     4
 0.2692771682     2     2     6     6
 0.0231755234     2     3     1     3
 0.1422723971     2     3     2     3
 0.0238789436     2     3     3     1
 0.1465878356     2     3     3     2
 -0.0135936751     2     3     3     4
 -0.0044486426     2     3     3     6
 -0.0140298455     2     3     4     3
 -0.0046777432     2     3     6     3
 0.0824123068     2     4     1     1
 -0.0075481366     2     4     1     2
 0.0221062343     2     4     1     4
 0.0056239584     2     4     1     6
 -0.0077934695     2     4     2     1
 -0.0178276087     2     4     2     2
 0.1133102564     2     4     2     4
 0.0119502062     2     4     2     6
 -0.0119450786     2     4     3     3
 0.0226522373     2     4     4     1
 0.1174201085     2     4     4     2
 0.0618230074     2     4     4     4
 -0.0004113469     2     4     4     6
 0.0307083956     2     4     5     5
 0.0058688583     2     4     6     1
 0.0123946925     2     4     6     2
 -0.0008808531     2     4     6     4
 -0.0176292676     2     4     6     6
 0.0283761200     2     5     1     5
 0.1158443473     2     5     2     5
 0.0267971152     2     5     4     5
 0.0285978350     2     5     5     1
 0.1193222876     2     5     5     2
 0.0267294916     2     5     5     4
 -0.0120726455     2     5     5     6
 -0.0118264953     2     5     6     5
 -0.1084980469     2     6     1     1
 0.0015284213     2     6     1     2
 0.0057523262     2     6     1     4
 0.0007434318     2     6     1     6
 0.0006970407     2     6     2     1
 -0.0649118057     2     6     2     2
 0.0119502062     2     6     2     4
 0.0177311481     2     6     2     6
 -0.0485975384     2     6     3     3
 0.0056353802     2     6     4     1
 0.0123946925     2     6     4     2
 -0.0440214606     2     6     4     4
 -0.0101918961     2     6     4     6
 -0.0560555492     2     6     5     5
 0.0004284796     2     6     6     1
 0.0135996223     2     6     6     2
 -0.0074575320     2     6     6     4
 -0.0047690708     2     6     6     6
 0.0211037712     3     1     1     3
 0.0238789436     3     1     2     3
 0.0170586935     3     1     3     1
 0.0231755234     3     1     3     2
 0.0026578544     3     1     3     4
 -0.0030169106     3     1     3     6
 0.0030089081     3     1     4     3
 -0.0031468804     3     1     6     3
 0.0238789436     3     2     1     3
 0.1465878356     3     2     2     3
 0.0231755234     3     2     3     1
 0.1422723971     3     2     3     2
 -0.0140298455     3     2     3     4
 -0.0046777432     3     2     3     6
 -0.0135936751     3     2     4     3
 -0.0044486426     3     2     6     3
 0.8940748942     3     3     1     1
 -0.0071539692     3     3     1     2
 -0.0075905054     3     3     1     4
 0.0004367578     3     3     1     6
 -0.0071539692     3     3     2     1
 0.6756403325     3     3     2     2
 -0.0119450786     3     3     2     4
 -0.0485975384     3     3     2     6
 0.6499561408     3     3     3     3
 -0.0075905054     3     3     4     1
 -0.0119450786     3     3     4     2
 0.5962688609     3     3     4     4
 0.0229828213     3     3     4     6
 0.6089204165     3     3     5     5
 0.0004367578     3     3     6     1
 -0.0485975384     3     3     6     2
 0.0229828213     3     3     6     4
 0.2659384304     3     3     6     6
 0.0030089081     3     4     1     3
 -0.0135936751     3     4     2     3
 0.0026578544     3     4     3     1
 -0.0140298455     3     4     3     2
 0.0303020456     3     4     3     4
 -0.0010595076     3     4     3     6
 0.0358381852     3     4     4     3
 -0.0007562389     3     4     6     3
 0.0219575348     3     5     3     5
 0.0272189087     3     5     5     3
 -0.0031468804     3     6     1     3
 -0.0044486426     3     6     2     3
 -0.0030169106     3     6     3     1
 -0.0046777432     3     6     3     2
 -0.0010595076     3     6     3     4