&FCI NORB=  8,NELEC= 10,MS2=0,
 ORBSYM=1,1,1,1,1,1,1,1
 ISYM=1,
&END
 0.9851943746     1     1     2     2
 0.0663878843     1     1     2     4
 0.0812829618     1     1     2     6
 0.0493336048     1     1     2     8
 0.8726612075     1     1     3     3
 -0.0839865735     1     1     3     7
 0.0663878843     1     1     4     2
 0.9483797302     1     1     4     4
 -0.0432043347     1     1     4     6
 0.0933104418     1     1     4     8
 0.9886394130     1     1     5     5
 0.0812829618     1     1     6     2
 -0.0432043347     1     1     6     4
 0.2482545192     1     1     6     6
 0.0194872962     1     1     6     8
 -0.0839865735     1     1     7     3
 0.2103382097     1     1     7     7
 0.0000000002     1     1     7     8
 0.0493336048     1     1     8     2
 0.0933104418     1     1     8     4
 0.0194872962     1     1     8     6
 0.0000000002     1     1     8     7
 0.2760892396     1     1     8     8
 -0.9851943746     1     2     2     1
 0.0071150960     1     2     2     4
 -0.0007238106     1     2     2     6
 0.0018433925     1     2     2     8
 -0.0314023977     1     2     3     3
 0.0064720893     1     2     3     7
 -0.0663878843     1     2     4     1
 -0.0360241513     1     2     4     4
 0.0044009233     1     2     4     6
 -0.0060227835     1     2     4     8
 -0.0404588120     1     2     5     5
 -0.0812829618     1     2     6     1
 0.0040326187     1     2     6     4
 -0.0007283982     1     2     6     6
 0.0007560101     1     2     6     8
 0.0046039835     1     2     7     3
 -0.0013561025     1     2     7     7
 0.0000000001     1     2     7     8
 -0.0493336048     1     2     8     1
 -0.0041458791     1     2     8     4
 0.0004850319     1     2     8     6
 0.0000000001     1     2     8     7
 -0.0015027826     1     2     8     8
 0.0012883396     1     3     2     7
 -0.8726612075     1     3     3     1
 0.0314023977     1     3     3     2
 0.0106314661     1     3     3     4
 0.0029811027     1     3     3     6
 0.0036056416     1     3     3     8
 -0.0004659244     1     3     4     7
 -0.0012435158     1     3     6     7
 0.0839865735     1     3     7     1
 -0.0046039835     1     3     7     2
 -0.0015857450     1     3     7     4
 -0.0019845741     1     3     7     6
 -0.0012266596     1     3     7     8
 -0.0006710652     1     3     8     7
 -0.0663878843     1     4     2     1
 -0.0071150960     1     4     2     2
 -0.0001047153     1     4     2     6
 -0.0013168975     1     4     2     8
 -0.0106314661     1     4     3     3
 0.0012516011     1     4     3     7
 -0.9483797302     1     4     4     1
 0.0360241513     1     4     4     2
 0.0056333751     1     4     4     6
 0.0027177730     1     4     4     8
 -0.0135311208     1     4     5     5
 0.0432043347     1     4     6     1
 -0.0040326187     1     4     6     2
 -0.0020177457     1     4     6     6
 0.0005621638     1     4     6     8
 0.0015857450     1     4     7     3
 -0.0010034297     1     4     7     7
 0.0000000001     1     4     7     8
 -0.0933104418     1     4     8     1
 0.0041458791     1     4     8     2
 0.0018548839     1     4     8     6
 0.0000000001     1     4     8     7
 0.0016650484     1     4     8     8
 -0.9886394130     1     5     5     1
 0.0404588120     1     5     5     2
 0.0135311208     1     5     5     4
 0.0051919995     1     5     5     6
 0.0063395751     1     5     5     8
 -0.0812829618     1     6     2     1
 0.0007238106     1     6     2     2
 0.0001047153     1     6     2     4
 0.0002895604     1     6     2     8
 -0.0029811027     1     6     3     3
 0.0007206798     1     6     3     7
 0.0432043347     1     6     4     1
 -0.0044009233     1     6     4     2
 -0.0056333751     1     6     4     4
 -0.0012579401     1     6     4     8
 -0.0051919995     1     6     5     5
 -0.2482545192     1     6     6     1
 0.0007283982     1     6     6     2
 0.0020177457     1     6     6     4
 0.0002985280     1     6     6     8
 0.0019845741     1     6     7     3
 -0.0003892932     1     6     7     7
 -0.0194872962     1     6     8     1
 -0.0004850319     1     6     8     2
 -0.0018548839     1     6     8     4
 -0.0006545209     1     6     8     8
 -0.0012883396     1     7     2     3
 0.0839865735     1     7     3     1
 -0.0064720893     1     7     3     2
 -0.0012516011     1     7     3     4
 -0.0007206798     1     7     3     6
 -0.0005730726     1     7     3     8
 0.0004659244     1     7     4     3
 0.0012435158     1     7     6     3
 -0.2103382097     1     7     7     1
 0.0013561025     1     7     7     2
 0.0010034297     1     7     7     4
 0.0003892932     1     7     7     6
 0.0004025378     1     7     7     8
 -0.0000000002     1     7     8     1
 -0.0000000001     1     7     8     2
 0.0006710652     1     7     8     3
 -0.0000000001     1     7     8     4
 -0.0493336048     1     8     2     1
 -0.0018433925     1     8     2     2
 0.0013168975     1     8     2     4
 -0.0002895604     1     8     2     6
 -0.0036056416     1     8     3     3
 0.0005730726     1     8     3     7
 -0.0933104418     1     8     4     1
 0.0060227835     1     8     4     2
 -0.0027177730     1     8     4     4
 0.0012579401     1     8     4     6
 -0.0063395751     1     8     5     5
 -0.0194872962     1     8     6     1
 -0.0007560101     1     8     6     2
 -0.0005621638     1     8     6     4
 -0.0002985280     1     8     6     6
 -0.0000000002     1     8     7     1
 -0.0000000001     1     8     7     2
 0.0012266596     1     8     7     3
 -0.0000000001     1     8     7     4
 -0.0004025378     1     8     7     7
 -0.2760892396     1     8     8     1
 0.0015027826     1     8     8     2
 -0.0016650484     1     8     8     4
 0.0006545209     1     8     8     6
 -0.9851943746     2     1     1     2
 -0.0663878843     2     1     1     4
 -0.0812829618     2     1     1     6
 -0.0493336048     2     1     1     8
 -0.0314023977     2     1     3     3
 0.0046039835     2     1     3     7
 0.0071150960     2     1     4     2
 -0.0360241513     2     1     4     4
 0.0040326187     2     1     4     6
 -0.0041458791     2     1     4     8
 -0.0404588120     2     1     5     5
 -0.0007238106     2     1     6     2
 0.0044009233     2     1     6     4
 -0.0007283982     2     1     6     6
 0.0004850319     2     1     6     8
 0.0064720893     2     1     7     3
 -0.0013561025     2     1     7     7
 0.0018433925     2     1     8     2
 -0.0060227835     2     1     8     4
 0.0007560101     2     1     8     6
 -0.0015027826     2     1     8     8
 0.9851943746     2     2     1     1
 -0.0071150960     2     2     1     4
 0.0007238106     2     2     1     6
 -0.0018433925     2     2     1     8
 0.5294076930     2     2     3     3
 -0.0363223441     2     2     3     7
 -0.0071150960     2     2     4     1
 0.5503068159     2     2     4     4
 -0.0184803068     2     2     4     6
 0.0411148959     2     2     4     8
 0.5746261672     2     2     5     5
 0.0007238106     2     2     6     1
 -0.0184803068     2     2     6     4
 0.2317895826     2     2     6     6
 -0.0000000002     2     2     6     7
 0.0117162961     2     2     6     8
 -0.0363223441     2     2     7     3
 -0.0000000002     2     2     7     6
 0.1998700416     2     2     7     7
 -0.0000000010     2     2     7     8
 -0.0018433925     2     2     8     1
 0.0411148959     2     2     8     4
 0.0117162961     2     2     8     6
 -0.0000000010     2     2     8     7
 0.2479211853     2     2     8     8
 -0.0012883396     2     3     1     7
 0.0314023977     2     3     3     1
 -0.5294076930     2     3     3     2
 -0.0015986129     2     3     3     4
 -0.0380675487     2     3     3     6
 -0.0221313815     2     3     3     8
 -0.0039314663     2     3     4     7
 0.0000000001     2     3     6     6
 -0.0205170905     2     3     6     7
 0.0000000004     2     3     6     8
 -0.0064720893     2     3     7     1
 0.0363223441     2     3     7     2
 -0.0010989379     2     3     7     4
 -0.0159122725     2     3     7     6
 -0.0043110488     2     3     7     8
 0.0000000004     2     3     8     6
 -0.0073084685     2     3     8     7
 -0.0000000004     2     3     8     8
 0.0663878843     2     4     1     1
 0.0071150960     2     4     1     2
 0.0001047153     2     4     1     6
 0.0013168975     2     4     1     8
 0.0015986129     2     4     3     3
 -0.0031116379     2     4     3     7
 0.0360241513     2     4     4     1
 -0.5503068159     2     4     4     2
 -0.0380250263     2     4     4     6
 -0.0169426744     2     4     4     8
 0.0036309638     2     4     5     5
 -0.0044009233     2     4     6     1
 0.0184803068     2     4     6     2
 -0.0093525911     2     4     6     6
 -0.0000000001     2     4     6     7
 0.0135421334     2     4     6     8
 0.0010989379     2     4     7     3
 -0.0000000001     2     4     7     6
 -0.0069477622     2     4     7     7
 -0.0000000004     2     4     7     8
 0.0060227835     2     4     8     1
 -0.0411148959     2     4     8     2
 0.0072929156     2     4     8     6
 -0.0000000004     2     4     8     7
 0.0140142032     2     4     8     8
 0.0404588120     2     5     5     1
 -0.5746261672     2     5     5     2
 -0.0036309638     2     5     5     4
 -0.0384633288     2     5     5     6
 -0.0146786070     2     5     5     8
 0.0812829618     2     6     1     1
 -0.0007238106     2     6     1     2
 -0.0001047153     2     6     1     4
 -0.0002895604     2     6     1     8
 0.0380675487     2     6     3     3
 -0.0047195555     2     6     3     7
 -0.0040326187     2     6     4     1
 0.0184803068     2     6     4     2
 0.0380250263     2     6     4     4
 0.0062581142     2     6     4     8
 0.0384633288     2     6     5     5
 0.0007283982     2     6     6     1
 -0.2317895826     2     6     6     2
 -0.0000000001     2     6     6     3
 0.0093525911     2     6     6     4
 -0.0000000001     2     6     6     7
 -0.0006705256     2     6     6     8
 0.0000000002     2     6     7     2
 0.0159122725     2     6     7     3
 0.0000000001     2     6     7     4
 0.0018569464     2     6     7     7
 0.0000000002     2     6     7     8
 -0.0007560101     2     6     8     1
 -0.0117162961     2     6     8     2
 -0.0000000004     2     6     8     3
 -0.0072929156     2     6     8     4
 -0.0000000003     2     6     8     7
 0.0039290056     2     6     8     8
 0.0012883396     2     7     1     3
 -0.0046039835     2     7     3     1
 0.0363223441     2     7     3     2
 0.0031116379     2     7     3     4
 0.0047195555     2     7     3     6
 0.0028989982     2     7     3     8
 0.0039314663     2     7     4     3
 -0.0000000001     2     7     4     8
 0.0000000002     2     7     6     2
 0.0205170905     2     7     6     3
 0.0000000001     2     7     6     4
 0.0000000001     2     7     6     6
 0.0000000005     2     7     6     8
 0.0013561025     2     7     7     1
 -0.1998700416     2     7     7     2
 0.0069477622     2     7     7     4
 -0.0018569464     2     7     7     6
 0.0000084635     2     7     7     8
 0.0000000010     2     7     8     2
 0.0073084685     2     7     8     3
 0.0000000004     2     7     8     4
 0.0000000003     2     7     8     6
 -0.0000000001     2     7     8     8
 0.0493336048     2     8     1     1
 0.0018433925     2     8     1     2
 -0.0013168975     2     8     1     4
 0.0002895604     2     8     1     6
 0.0221313815     2     8     3     3
 -0.0028989982     2     8     3     7
 0.0041458791     2     8     4     1
 -0.0411148959     2     8     4     2
 0.0169426744     2     8     4     4
 -0.0062581142     2     8     4     6
 0.0000000001     2     8     4     7
 0.0146786070     2     8     5     5
 -0.0004850319     2     8     6     1
 -0.0117162961     2     8     6     2
 -0.0000000004     2     8     6     3
 -0.0135421334     2     8     6     4
 0.0006705256     2     8     6     6
 -0.0000000005     2     8     6     7
 0.0000000010     2     8     7     2
 0.0043110488     2     8     7     3
 0.0000000004     2     8     7     4
 -0.0000000002     2     8     7     6
 -0.0000084635     2     8     7     7
 0.0015027826     2     8     8     1
 -0.2479211853     2     8     8     2
 0.0000000004     2     8     8     3
 -0.0140142032     2     8     8     4
 -0.0039290056     2     8     8     6
 0.0000000001     2     8     8     7
 -0.8726612075     3     1     1     3
 0.0839865735     3     1     1     7
 0.0314023977     3     1     2     3
 -0.0046039835     3     1     2     7
 0.0106314661     3     1     4     3
 -0.0015857450     3     1     4     7
 0.0029811027     3     1     6     3
 -0.0019845741     3     1     6     7
 0.0012883396     3     1     7     2
 -0.0004659244     3     1     7     4
 -0.0012435158     3     1     7     6
 -0.0006710652     3     1     7     8
 0.0036056416     3     1     8     3
 -0.0012266596     3     1     8     7
 0.0314023977     3     2     1     3
 -0.0064720893     3     2     1     7
 -0.5294076930     3     2     2     3
 0.0363223441     3     2     2     7
 -0.0015986129     3     2     4     3
 -0.0010989379     3     2     4     7
 -0.0380675487     3     2     6     3
 0.0000000001     3     2     6     6
 -0.0159122725     3     2     6     7
 0.0000000004     3     2     6     8
 -0.0012883396     3     2     7     1
 -0.0039314663     3     2     7     4
 -0.0205170905     3     2     7     6
 -0.0073084685     3     2     7     8
 -0.0221313815     3     2     8     3
 0.0000000004     3     2     8     6
 -0.0043110487     3     2     8     7
 -0.0000000004     3     2     8     8
 0.8726612075     3     3     1     1
 -0.0314023977     3     3     1     2
 -0.0106314661     3     3     1     4
 -0.0029811027     3     3     1     6
 -0.0036056416     3     3     1     8
 -0.0314023977     3     3     2     1
 0.5294076930     3     3     2     2
 0.0015986129     3     3     2     4
 0.0380675487     3     3     2     6
 0.0221313815     3     3     2     8
 -0.0106314661     3     3     4     1
 0.0015986129     3     3     4     2
 0.5628331501     3     3     4     4
 -0.0210420930     3     3     4     6
 0.0423101551     3     3     4     8
 0.5834589409     3     3     5     5
 -0.0029811027     3     3     6     1
 0.0380675487     3     3     6     2
 -0.0210420930     3     3     6     4
 0.2334883720     3     3     6     6
 0.0124621235     3     3     6     8
 0.1974821086     3     3     7     7
 0.0000000002     3     3     7     8
 -0.0036056416     3     3     8     1
 0.0221313815     3     3     8     2
 0.0423101551     3     3     8     4
 0.0124621235     3     3     8     6
 0.0000000002     3     3     8     7
 0.2440176083     3     3     8     8
 0.0106314661     3     4     1     3
 -0.0012516011     3     4     1     7
 -0.0015986129     3     4     2     3
 0.0031116379     3     4     2     7
 -0.5628331501     3     4     4     3
 0.0434303602     3     4     4     7
 0.0210420930     3     4     6     3
 0.0021643260     3     4     6     7
 -0.0000000001     3     4     6     8
 0.0004659244     3     4     7     1
 0.0039314663     3     4     7     2
 0.0051601870     3     4     7     6
 -0.0010812433     3     4     7     8
 -0.0423101551     3     4     8     3
 -0.0000000001     3     4     8     6
 0.0054011580     3     4     8     7
 -0.5834589409     3     5     5     3
 0.0452682869     3     5     5     7
 0.0029811027     3     6     1     3
 -0.0007206798     3     6     1     7
 -0.0380675487     3     6     2     3
 0.0047195555     3     6     2     7
 0.0210420930     3     6     4     3
 -0.0032072415     3     6     4     7
 0.0000000002     3     6     4     8
 -0.0000000001     3     6     6     2
 -0.2334883720     3     6     6     3
 0.0103058944     3     6     6     7
 0.0000000001     3     6     6     8
 0.0012435158     3     6     7     1
 0.0205170905     3     6     7     2
 -0.0051601870     3     6     7     4
 -0.0042101815     3     6     7     8
 -0.0000000004     3     6     8     2
 -0.0124621235     3     6     8     3
 0.0000000001     3     6     8     4
 0.0033011314     3     6     8     7
 -0.0839865735     3     7     1     1
 0.0064720893     3     7     1     2
 0.0012516011     3     7     1     4
 0.0007206798     3     7     1     6
 0.0005730726     3     7     1     8
 0.0046039835     3     7     2     1
 -0.0363223441     3     7     2     2
 -0.0031116379     3     7     2     4
 -0.0047195555     3     7     2     6
 -0.0028989982     3     7     2     8
 0.0015857450     3     7     4     1
 0.0010989379     3     7     4     2
 -0.0434303602     3     7     4     4
 0.0032072415     3     7     4     6
 -0.0066249888     3     7     4     8
 -0.0452682869     3     7     5     5
 0.0019845741     3     7     6     1
 0.0159122725     3     7     6     2
 -0.0021643260     3     7     6     4
 -0.0103058944     3     7     6     6
 -0.0075095520     3     7     6     8
 -0.1974821086     3     7     7     3
 -0.0000000001     3     7     7     8
 0.0012266596     3     7     8     1
 0.0043110487     3     7     8     2
 -0.0000000002     3     7     8     3
 -0.0054011580     3     7     8     4
 -0.0033011314     3     7     8     6
 -0.0095109649     3     7     8     8
 0.0036056416     3     8     1     3
 -0.0005730726     3     8     1     7
 -0.0221313815     3     8     2     3
 0.0028989982     3     8     2     7
 -0.0423101551     3     8     4     3
 -0.0000000002     3     8     4     6
 0.0066249888     3     8     4     7
 -0.0000000004     3     8     6     2
 -0.0124621235     3     8     6     3
 0.0000000001     3     8     6     4
 -0.0000000001     3     8     6     6
 0.0075095520     3     8     6     7
 0.0006710652     3     8     7     1
 0.0073084685     3     8     7     2
 -0.0000000002     3     8     7     3
 0.0010812433     3     8     7     4
 0.0042101815     3     8     7     6
 0.0000000001     3     8     7     7
 0.0000000004     3     8     8     2
 -0.2440176083     3     8     8     3
 0.0095109649     3     8     8     7
 -0.0663878843     4     1     1     2
 -0.9483797302     4     1     1     4
 0.0432043347     4     1     1     6
 -0.0933104418     4     1     1     8
 -0.0071150960     4     1     2     2
 0.0360241513     4     1     2     4
 -0.0040326187     4     1     2     6
 0.0041458791     4     1     2     8
 -0.0106314661     4     1     3     3
 0.0015857450     4     1     3     7
 -0.0135311208     4     1     5     5
 -0.0001047153     4     1     6     2
 0.0056333751     4     1     6     4
 -0.0020177457     4     1     6     6
 0.0018548839     4     1     6     8
 0.0012516011     4     1     7     3
 -0.0010034297     4     1     7     7
 0.0000000001     4     1     7     8
 -0.0013168975     4     1     8     2
 0.0027177730     4     1     8     4
 0.0005621638     4     1     8     6
 0.0000000001     4     1     8     7
 0.0016650484     4     1     8     8
 0.0663878843     4     2     1     1
 0.0360241513     4     2     1     4
 -0.0044009233     4     2     1     6
 0.0060227835     4     2     1     8
 0.0071150960     4     2     2     1
 -0.5503068159     4     2     2     4
 0.0184803068     4     2     2     6
 -0.0411148959     4     2     2     8
 0.0015986129     4     2     3     3
 0.0010989379     4     2     3     7
 0.0036309638     4     2     5     5
 0.0001047153     4     2     6     1
 -0.0380250263     4     2     6     4
 -0.0093525911     4     2     6     6
 -0.0000000001     4     2     6     7
 0.0072929156     4     2     6     8
 -0.0031116379     4     2     7     3
 -0.0000000001     4     2     7     6
 -0.0069477622     4     2     7     7
 -0.0000000003     4     2     7     8
 0.0013168975     4     2     8     1
 -0.0169426744     4     2     8     4
 0.0135421334     4     2     8     6
 -0.0000000004     4     2     8     7
 0.0140142032     4     2     8     8
 0.0004659244     4     3     1     7
 0.0039314663     4     3     2     7
 0.0106314661     4     3     3     1
 -0.0015986129     4     3     3     2
 -0.5628331501     4     3     3     4
 0.0210420930     4     3     3     6
 -0.0423101551     4     3     3     8
 0.0051601870     4     3     6     7
 -0.0000000001     4     3     6     8
 -0.0012516011     4     3     7     1
 0.0031116379     4     3     7     2
 0.0434303602     4     3     7     4
 0.0021643260     4     3     7     6
 0.0054011580     4     3     7     8
 -0.0000000001     4     3     8     6
 -0.0010812433     4     3     8     7
 0.9483797302     4     4     1     1
 -0.0360241513     4     4     1     2
 -0.0056333751     4     4     1     6
 -0.0027177730     4     4     1     8
 -0.0360241513     4     4     2     1
 0.5503068159     4     4     2     2
 0.0380250263     4     4     2     6
 0.0169426744     4     4     2     8
 0.5628331501     4     4     3     3
 -0.0434303602     4     4     3     7
 0.6008328831     4     4     5     5
 -0.0056333751     4     4     6     1
 0.0380250263     4     4     6     2
 0.2242250744     4     4     6     6
 -0.0000000001     4     4     6     7
 0.0213472537     4     4     6     8
 -0.0434303602     4     4     7     3
 -0.0000000001     4     4     7     6
 0.1947391439     4     4     7     7
 -0.0000000006     4     4     7     8
 -0.0027177730     4     4     8     1
 0.0169426744     4     4     8     2
 0.0213472537     4     4     8     6
 -0.0000000006     4     4     8     7
 0.2526030273     4     4     8     8
 0.0135311208     4     5     5     1
 -0.0036309638     4     5     5     2
 -0.6008328831     4     5     5     4
 0.0243184780     4     5     5     6
 0.0000000001     4     5     5     7
 -0.0471265623     4     5     5     8
 -0.0432043347     4     6     1     1
 0.0044009233     4     6     1     2
 0.0056333751     4     6     1     4
 0.0012579401     4     6     1     8
 0.0040326187     4     6     2     1
 -0.0184803068     4     6     2     2
 -0.0380250263     4     6     2     4
 -0.0062581142     4     6     2     8
 -0.0210420930     4     6     3     3
 0.0032072415     4     6     3     7
 -0.0000000002     4     6     3     8
 -0.0243184780     4     6     5     5
 0.0020177457     4     6     6     1
 0.0093525911     4     6     6     2
 -0.2242250744     4     6     6     4
 -0.0114208969     4     6     6     8
 0.0000000001     4     6     7     2
 -0.0021643260     4     6     7     3
 0.0000000001     4     6     7     4
 -0.0013041957     4     6     7     7
 0.0000000011     4     6     7     8
 -0.0005621638     4     6     8     1
 -0.0135421334     4     6     8     2
 0.0000000001     4     6     8     3
 -0.0213472537     4     6     8     4
 0.0000000001     4     6     8     7
 -0.0067372203     4     6     8     8
 -0.0004659244     4     7     1     3
 -0.0039314663     4     7     2     3
 0.0000000001     4     7     2     8
 -0.0015857450     4     7     3     1
 -0.0010989379     4     7     3     2
 0.0434303602     4     7     3     4
 -0.0032072415     4     7     3     6
 0.0066249888     4     7     3     8
 -0.0000000001     4     7     5     5
 0.0000000001     4     7     6     2
 -0.0051601870     4     7     6     3
 0.0000000001     4     7     6     4
 0.0000000010     4     7     6     8
 0.0010034297     4     7     7     1
 0.0069477622     4     7     7     2
 -0.1947391439     4     7     7     4
 0.0013041957     4     7     7     6
 -0.0048627916     4     7     7     8
 -0.0000000001     4     7     8     1
 0.0000000004     4     7     8     2
 0.0010812433     4     7     8     3
 0.0000000006     4     7     8     4
 -0.0000000001     4     7     8     6
 0.0000000006     4     7     8     8
 0.0933104418     4     8     1     1
 -0.0060227835     4     8     1     2
 0.0027177730     4     8     1     4
 -0.0012579401     4     8     1     6
 -0.0041458791     4     8     2     1
 0.0411148959     4     8     2     2
 -0.0169426744     4     8     2     4
 0.0062581142     4     8     2     6
 -0.0000000001     4     8     2     7
 0.0423101551     4     8     3     3
 0.0000000002     4     8     3     6
 -0.0066249888     4     8     3     7
 0.0471265623     4     8     5     5
 -0.0018548839     4     8     6     1
 -0.0072929156     4     8     6     2
 0.0000000001     4     8     6     3
 -0.0213472537     4     8     6     4
 0.0114208969     4     8     6     6
 -0.0000000010     4     8     6     7
 -0.0000000001     4     8     7     1
 0.0000000003     4     8     7     2
 -0.0054011580     4     8     7     3
 0.0000000006     4     8     7     4
 -0.0000000011     4     8     7     6
 0.0048627916     4     8     7     7
 -0.0016650484     4     8     8     1
 -0.0140142032     4     8     8     2
 -0.2526030273     4     8     8     4
 0.0067372203     4     8     8     6
 -0.0000000006     4     8     8     7
 -0.9886394130     5     1     1     5
 0.0404588120     5     1     2     5
 0.0135311208     5     1     4     5
 0.0051919995     5     1     6     5
 0.0063395751     5     1     8     5
 0.0404588120     5     2     1     5
 -0.5746261672     5     2     2     5
 -0.0036309638     5     2     4     5
 -0.0384633288     5     2     6     5
 -0.0146786070     5     2     8     5
 -0.5834589409     5     3     3     5
 0.0452682869     5     3     7     5
 0.0135311208     5     4     1     5
 -0.0036309638     5     4     2     5
 -0.6008328831     5     4     4     5
 0.0243184780     5     4     6     5
 0.0000000001     5     4     7     5
 -0.0471265623     5     4     8     5
 0.9886394130     5     5     1     1
 -0.0404588120     5     5     1     2
 -0.0135311208     5     5     1     4
 -0.0051919995     5     5     1     6
 -0.0063395751     5     5     1     8
 -0.0404588120     5     5     2     1
 0.5746261672     5     5     2     2
 0.0036309638     5     5     2     4
 0.0384633288     5     5     2     6
 0.0146786070     5     5     2     8
 0.5834589409     5     5     3     3
 -0.0452682869     5     5     3     7
 -0.0135311208     5     5     4     1
 0.0036309638     5     5     4     2
 0.6008328831     5     5     4     4
 -0.0243184780     5     5     4     6
 -0.0000000001     5     5     4     7
 0.0471265623     5     5     4     8
 -0.0051919995     5     5     6     1
 0.0384633288     5     5     6     2
 -0.0243184780     5     5     6     4
 0.2289926201     5     5     6     6
 -0.0000000006     5     5     6     7
 0.0152243370     5     5     6     8
 -0.0452682869     5     5     7     3
 -0.0000000001     5     5     7     4
 -0.0000000006     5     5     7     6
 0.1961034766     5     5     7     7
 -0.0000000027     5     5     7     8
 -0.0063395751     5     5     8     1
 0.0146786070     5     5     8     2
 0.0471265623     5     5     8     4
 0.0152243370     5     5     8     6
 -0.0000000027     5     5     8     7
 0.2505119674     5     5     8     8
 0.0051919995     5     6     1     5
 -0.0384633288     5     6     2     5
 0.0243184780     5     6     4     5
 -0.2289926201     5     6     6     5
 0.0000000006     5     6     7     5
 -0.0152243370     5     6     8     5
 0.0452682869     5     7     3     5
 0.0000000001     5     7     4     5
 0.0000000006     5     7     6     5
 -0.1961034766     5     7     7     5
 0.0000000027     5     7     8     5
 0.0063395751     5     8     1     5
 -0.0146786070     5     8     2     5
 -0.0471265623     5     8     4     5
 -0.0152243370     5     8     6     5
 0.0000000027     5     8     7     5
 -0.2505119674     5     8     8     5
 -0.0812829618     6     1     1     2
 0.0432043347     6     1     1     4
 -0.2482545192     6     1     1     6
 -0.0194872962     6     1     1     8
 0.0007238106     6     1     2     2
 -0.0044009233     6     1     2     4
 0.0007283982     6     1     2     6
 -0.0004850319     6     1     2     8
 -0.0029811027     6     1     3     3
 0.0019845741     6     1     3     7
 0.0001047153     6     1     4     2
 -0.0056333751     6     1     4     4
 0.0020177457     6     1     4     6
 -0.0018548839     6     1     4     8
 -0.0051919995     6     1     5     5
 0.0007206798     6     1     7     3
 -0.0003892932     6     1     7     7
 0.0002895604     6     1     8     2
 -0.0012579401     6     1     8     4
 0.0002985280     6     1     8     6
 -0.0006545209     6     1     8     8
 0.0812829618     6     2     1     1
 -0.0040326187     6     2     1     4
 0.0007283982     6     2     1     6
 -0.0007560101     6     2     1     8
 -0.0007238106     6     2     2     1
 0.0184803068     6     2     2     4
 -0.2317895826     6     2     2     6
 0.0000000002     6     2     2     7
 -0.0117162961     6     2     2     8
 0.0380675487     6     2     3     3
 -0.0000000001     6     2     3     6
 0.0159122725     6     2     3     7
 -0.0000000004     6     2     3     8
 -0.0001047153     6     2     4     1
 0.0380250263     6     2     4     4
 0.0093525911     6     2     4     6
 0.0000000001     6     2     4     7
 -0.0072929156     6     2     4     8
 0.0384633288     6     2     5     5
 -0.0047195555     6     2     7     3
 -0.0000000001     6     2     7     6
 0.0018569464     6     2     7     7
 -0.0000000003     6     2     7     8
 -0.0002895604     6     2     8     1
 0.0062581142     6     2     8     4
 -0.0006705256     6     2     8     6
 0.0000000002     6     2     8     7
 0.0039290056     6     2     8     8
 0.0012435158     6     3     1     7
 -0.0000000001     6     3     2     6
 0.0205170905     6     3     2     7
 -0.0000000004     6     3     2     8
 0.0029811027     6     3     3     1
 -0.0380675487     6     3     3     2
 0.0210420930     6     3     3     4
 -0.2334883720     6     3     3     6
 -0.0124621235     6     3     3     8
 -0.0051601870     6     3     4     7