&FCI NORB= 10,NELEC= 10,MS2=0,
 ORBSYM=1,1,1,1,1,1,1,1,1,1
 ISYM=1,
&END
 0.9830566103     1     1     2     2
 0.0727727879     1     1     2     4
 -0.1597913781     1     1     2     6
 0.1318640650     1     1     2     9
 -0.0156506234     1     1     2    10
 0.8594516324     1     1     3     3
 -0.2012942202     1     1     3     7
 0.1372978697     1     1     3     8
 0.0727727879     1     1     4     2
 0.9538245029     1     1     4     4
 0.0904889180     1     1     4     6
 -0.1380459584     1     1     4     9
 -0.3246615938     1     1     4    10
 1.0053498517     1     1     5     5
 -0.1597913781     1     1     6     2
 0.0904889180     1     1     6     4
 0.3990808698     1     1     6     6
 -0.1605547389     1     1     6     9
 -0.0848337717     1     1     6    10
 -0.2012942202     1     1     7     3
 0.3924379478     1     1     7     7
 -0.1544107135     1     1     7     8
 0.1372978697     1     1     8     3
 -0.1544107135     1     1     8     7
 0.5538831596     1     1     8     8
 0.1318640650     1     1     9     2
 -0.1380459584     1     1     9     4
 -0.1605547389     1     1     9     6
 0.5746131410     1     1     9     9
 0.1223699421     1     1     9    10
 -0.0156506234     1     1    10     2
 -0.3246615938     1     1    10     4
 -0.0848337717     1     1    10     6
 0.1223699421     1     1    10     9
 0.7946347109     1     1    10    10
 -0.9830566103     1     2     2     1
 -0.0068274387     1     2     2     4
 -0.0018563771     1     2     2     6
 0.0039941237     1     2     2     9
 0.0089084700     1     2     2    10
 0.0299813156     1     2     3     3
 -0.0155526636     1     2     3     7
 0.0159945863     1     2     3     8
 -0.0727727879     1     2     4     1
 0.0355523831     1     2     4     4
 0.0089961972     1     2     4     6
 -0.0161166356     1     2     4     9
 -0.0344496263     1     2     4    10
 0.0408361152     1     2     5     5
 0.1597913781     1     2     6     1
 0.0084134895     1     2     6     4
 0.0027982182     1     2     6     6
 -0.0050884398     1     2     6     9
 -0.0100298286     1     2     6    10
 -0.0117442407     1     2     7     3
 0.0073373625     1     2     7     7
 -0.0074097530     1     2     7     8
 0.0108722528     1     2     8     3
 -0.0064647803     1     2     8     7
 0.0061432736     1     2     8     8
 -0.1318640650     1     2     9     1
 -0.0129115750     1     2     9     4
 -0.0041093018     1     2     9     6
 0.0069015319     1     2     9     9
 0.0157068329     1     2     9    10
 0.0156506234     1     2    10     1
 -0.0219805284     1     2    10     4
 -0.0061541195     1     2    10     6
 0.0119775708     1     2    10     9
 0.0266735906     1     2    10    10
 -0.0031981077     1     3     2     7
 0.0047024231     1     3     2     8
 -0.8594516324     1     3     3     1
 -0.0299813156     1     3     3     2
 -0.0104268555     1     3     3     4
 0.0048419924     1     3     3     6
 0.0007704609     1     3     3     9
 0.0051712785     1     3     3    10
 0.0018162515     1     3     4     7
 -0.0060710704     1     3     4     8
 -0.0025420447     1     3     6     7
 -0.0003678095     1     3     6     8
 0.2012942202     1     3     7     1
 0.0117442407     1     3     7     2
 0.0040834825     1     3     7     4
 -0.0059297081     1     3     7     6
 0.0031401733     1     3     7     9
 -0.0008227926     1     3     7    10
 -0.1372978697     1     3     8     1
 -0.0108722528     1     3     8     2
 -0.0033675181     1     3     8     4
 0.0046967875     1     3     8     6
 -0.0087290243     1     3     8     9
 -0.0033392702     1     3     8    10
 0.0022149392     1     3     9     7
 -0.0048475609     1     3     9     8
 -0.0011562735     1     3    10     7
 0.0022192520     1     3    10     8
 -0.0727727879     1     4     2     1
 0.0068274387     1     4     2     2
 0.0001734952     1     4     2     6
 -0.0026969762     1     4     2     9
 -0.0114627521     1     4     2    10
 0.0104268555     1     4     3     3
 -0.0023771577     1     4     3     7
 -0.0025586007     1     4     3     8
 -0.9538245029     1     4     4     1
 -0.0355523831     1     4     4     2
 0.0106501760     1     4     4     6
 -0.0125576911     1     4     4     9
 -0.0057029644     1     4     4    10
 0.0139226568     1     4     5     5
 -0.0904889180     1     4     6     1
 -0.0084134895     1     4     6     2
 0.0055044689     1     4     6     6
 -0.0050899442     1     4     6     9
 -0.0024341256     1     4     6    10
 -0.0040834825     1     4     7     3
 0.0038776197     1     4     7     7
 -0.0016832936     1     4     7     8
 0.0033675181     1     4     8     3
 -0.0040457204     1     4     8     7
 0.0061575619     1     4     8     8
 0.1380459584     1     4     9     1
 0.0129115750     1     4     9     2
 -0.0068602395     1     4     9     6
 0.0109566737     1     4     9     9
 -0.0000576106     1     4     9    10
 0.3246615938     1     4    10     1
 0.0219805284     1     4    10     2
 -0.0118945989     1     4    10     6
 0.0101160798     1     4    10     9
 0.0048903933     1     4    10    10
 -1.0053498517     1     5     5     1
 -0.0408361152     1     5     5     2
 -0.0139226568     1     5     5     4
 0.0104082973     1     5     5     6
 -0.0125124388     1     5     5     9
 0.0094751680     1     5     5    10
 0.1597913781     1     6     2     1
 0.0018563771     1     6     2     2
 -0.0001734952     1     6     2     4
 -0.0009533095     1     6     2     9
 -0.0035931034     1     6     2    10
 -0.0048419924     1     6     3     3
 0.0033387430     1     6     3     7
 -0.0050145167     1     6     3     8
 -0.0904889180     1     6     4     1
 -0.0089961972     1     6     4     2
 -0.0106501760     1     6     4     4
 0.0017670955     1     6     4     9
 0.0092012412     1     6     4    10
 -0.0104082973     1     6     5     5
 -0.3990808698     1     6     6     1
 -0.0027982182     1     6     6     2
 -0.0055044689     1     6     6     4
 0.0013399081     1     6     6     9
 0.0050871887     1     6     6    10
 0.0059297081     1     6     7     3
 -0.0028854718     1     6     7     7
 0.0034037859     1     6     7     8
 -0.0046967875     1     6     8     3
 0.0019917486     1     6     8     7
 -0.0011556652     1     6     8     8
 0.1605547389     1     6     9     1
 0.0041093018     1     6     9     2
 0.0068602395     1     6     9     4
 -0.0002130445     1     6     9     9
 -0.0075109127     1     6     9    10
 0.0848337717     1     6    10     1
 0.0061541195     1     6    10     2
 0.0118945989     1     6    10     4
 -0.0032846650     1     6    10     9
 -0.0115502210     1     6    10    10
 0.0031981077     1     7     2     3
 -0.0009088650     1     7     2     8
 0.2012942202     1     7     3     1
 0.0155526636     1     7     3     2
 0.0023771577     1     7     3     4
 -0.0033387430     1     7     3     6
 0.0008905610     1     7     3     9
 0.0003067644     1     7     3    10
 -0.0018162515     1     7     4     3
 0.0023898437     1     7     4     8
 0.0025420447     1     7     6     3
 0.0014190719     1     7     6     8
 -0.3924379478     1     7     7     1
 -0.0073373625     1     7     7     2
 -0.0038776197     1     7     7     4
 0.0028854718     1     7     7     6
 -0.0011987615     1     7     7     9
 0.0018359687     1     7     7    10
 0.1544107135     1     7     8     1
 0.0064647803     1     7     8     2
 0.0040457204     1     7     8     4
 -0.0019917486     1     7     8     6
 0.0036680418     1     7     8     9
 -0.0002664850     1     7     8    10
 -0.0022149392     1     7     9     3
 0.0014487118     1     7     9     8
 0.0011562735     1     7    10     3
 -0.0005899942     1     7    10     8
 -0.0047024231     1     8     2     3
 0.0009088650     1     8     2     7
 -0.1372978697     1     8     3     1
 -0.0159945863     1     8     3     2
 0.0025586007     1     8     3     4
 0.0050145167     1     8     3     6
 -0.0037948716     1     8     3     9
 -0.0051988550     1     8     3    10
 0.0060710704     1     8     4     3
 -0.0023898437     1     8     4     7
 0.0003678095     1     8     6     3
 -0.0014190719     1     8     6     7
 0.1544107135     1     8     7     1
 0.0074097530     1     8     7     2
 0.0016832936     1     8     7     4
 -0.0034037859     1     8     7     6
 0.0022147309     1     8     7     9
 0.0003377581     1     8     7    10
 -0.5538831596     1     8     8     1
 -0.0061432736     1     8     8     2
 -0.0061575619     1     8     8     4
 0.0011556652     1     8     8     6
 -0.0023229196     1     8     8     9
 0.0023594147     1     8     8    10
 0.0048475609     1     8     9     3
 -0.0014487118     1     8     9     7
 -0.0022192520     1     8    10     3
 0.0005899942     1     8    10     7
 -0.1318640650     1     9     2     1
 -0.0039941237     1     9     2     2
 0.0026969762     1     9     2     4
 0.0009533095     1     9     2     6
 0.0035347654     1     9     2    10
 -0.0007704609     1     9     3     3
 -0.0008905610     1     9     3     7
 0.0037948716     1     9     3     8
 0.1380459584     1     9     4     1
 0.0161166356     1     9     4     2
 0.0125576911     1     9     4     4
 -0.0017670955     1     9     4     6
 -0.0099305988     1     9     4    10
 0.0125124388     1     9     5     5
 0.1605547389     1     9     6     1
 0.0050884398     1     9     6     2
 0.0050899442     1     9     6     4
 -0.0013399081     1     9     6     6
 -0.0042266814     1     9     6    10
 -0.0031401733     1     9     7     3
 0.0011987615     1     9     7     7
 -0.0022147309     1     9     7     8
 0.0087290243     1     9     8     3
 -0.0036680418     1     9     8     7
 0.0023229196     1     9     8     8
 -0.5746131410     1     9     9     1
 -0.0069015319     1     9     9     2
 -0.0109566737     1     9     9     4
 0.0002130445     1     9     9     6
 0.0115539892     1     9     9    10
 -0.1223699421     1     9    10     1
 -0.0119775708     1     9    10     2
 -0.0101160798     1     9    10     4
 0.0032846650     1     9    10     6
 0.0089786240     1     9    10    10
 0.0156506234     1    10     2     1
 -0.0089084700     1    10     2     2
 0.0114627521     1    10     2     4
 0.0035931034     1    10     2     6
 -0.0035347654     1    10     2     9
 -0.0051712785     1    10     3     3
 -0.0003067644     1    10     3     7
 0.0051988550     1    10     3     8
 0.3246615938     1    10     4     1
 0.0344496263     1    10     4     2
 0.0057029644     1    10     4     4
 -0.0092012412     1    10     4     6
 0.0099305988     1    10     4     9
 -0.0094751680     1    10     5     5
 0.0848337717     1    10     6     1
 0.0100298286     1    10     6     2
 0.0024341256     1    10     6     4
 -0.0050871887     1    10     6     6
 0.0042266814     1    10     6     9
 0.0008227926     1    10     7     3
 -0.0018359687     1    10     7     7
 -0.0003377581     1    10     7     8
 0.0033392702     1    10     8     3
 0.0002664850     1    10     8     7
 -0.0023594147     1    10     8     8
 -0.1223699421     1    10     9     1
 -0.0157068329     1    10     9     2
 0.0000576106     1    10     9     4
 0.0075109127     1    10     9     6
 -0.0115539892     1    10     9     9
 -0.7946347109     1    10    10     1
 -0.0266735906     1    10    10     2
 -0.0048903933     1    10    10     4
 0.0115502210     1    10    10     6
 -0.0089786240     1    10    10     9
 -0.9830566103     2     1     1     2
 -0.0727727879     2     1     1     4
 0.1597913781     2     1     1     6
 -0.1318640650     2     1     1     9
 0.0156506234     2     1     1    10
 0.0299813156     2     1     3     3
 -0.0117442407     2     1     3     7
 0.0108722528     2     1     3     8
 -0.0068274387     2     1     4     2
 0.0355523831     2     1     4     4
 0.0084134895     2     1     4     6
 -0.0129115750     2     1     4     9
 -0.0219805284     2     1     4    10
 0.0408361152     2     1     5     5
 -0.0018563771     2     1     6     2
 0.0089961972     2     1     6     4
 0.0027982182     2     1     6     6
 -0.0041093018     2     1     6     9
 -0.0061541195     2     1     6    10
 -0.0155526636     2     1     7     3
 0.0073373625     2     1     7     7
 -0.0064647803     2     1     7     8
 0.0159945863     2     1     8     3
 -0.0074097530     2     1     8     7
 0.0061432736     2     1     8     8
 0.0039941237     2     1     9     2
 -0.0161166356     2     1     9     4
 -0.0050884398     2     1     9     6
 0.0069015319     2     1     9     9
 0.0119775708     2     1     9    10
 0.0089084700     2     1    10     2
 -0.0344496263     2     1    10     4
 -0.0100298286     2     1    10     6
 0.0157068329     2     1    10     9
 0.0266735906     2     1    10    10
 0.9830566103     2     2     1     1
 0.0068274387     2     2     1     4
 0.0018563771     2     2     1     6
 -0.0039941237     2     2     1     9
 -0.0089084700     2     2     1    10
 0.5251053132     2     2     3     3
 -0.0777160961     2     2     3     7
 0.0272780507     2     2     3     8
 0.0068274387     2     2     4     1
 0.5527873347     2     2     4     4
 0.0384246286     2     2     4     6
 -0.0448262391     2     2     4     9
 -0.1042047943     2     2     4    10
 0.5825178319     2     2     5     5
 0.0018563771     2     2     6     1
 0.0384246286     2     2     6     4
 0.3335195672     2     2     6     6
 -0.0804242753     2     2     6     9
 -0.0404066649     2     2     6    10
 -0.0777160961     2     2     7     3
 0.3277746431     2     2     7     7
 -0.0855909747     2     2     7     8
 0.0272780507     2     2     8     3
 -0.0855909747     2     2     8     7
 0.4730329459     2     2     8     8
 -0.0039941237     2     2     9     1
 -0.0448262391     2     2     9     4
 -0.0804242753     2     2     9     6
 0.4718508832     2     2     9     9
 0.0243016384     2     2     9    10
 -0.0089084700     2     2    10     1
 -0.1042047943     2     2    10     4
 -0.0404066649     2     2    10     6
 0.0243016384     2     2    10     9
 0.5371705071     2     2    10    10
 0.0031981077     2     3     1     7
 -0.0047024231     2     3     1     8
 -0.0299813156     2     3     3     1
 -0.5251053132     2     3     3     2
 -0.0032898186     2     3     3     4
 0.0725705272     2     3     3     6
 -0.0761026358     2     3     3     9
 0.0199030138     2     3     3    10
 -0.0150773631     2     3     4     7
 0.0393579289     2     3     4     8
 0.0401617313     2     3     6     7
 0.0001461737     2     3     6     8
 0.0155526636     2     3     7     1
 0.0777160961     2     3     7     2
 -0.0009301003     2     3     7     4
 0.0209869026     2     3     7     6
 0.0060621182     2     3     7     9
 -0.0034210894     2     3     7    10
 -0.0159945863     2     3     8     1
 -0.0272780507     2     3     8     2
 0.0055793962     2     3     8     4
 0.0044167471     2     3     8     6
 0.0519881333     2     3     8     9
 0.0066030048     2     3     8    10
 -0.0147617307     2     3     9     7
 0.0537583455     2     3     9     8
 0.0002986204     2     3    10     7
 0.0051264484     2     3    10     8
 0.0727727879     2     4     1     1
 -0.0068274387     2     4     1     2
 -0.0001734952     2     4     1     6
 0.0026969762     2     4     1     9
 0.0114627521     2     4     1    10
 0.0032898186     2     4     3     3
 -0.0140412708     2     4     3     7
 0.0342660167     2     4     3     8
 -0.0355523831     2     4     4     1
 -0.5527873347     2     4     4     2
 0.0718050221     2     4     4     6
 -0.0478399434     2     4     4     9
 -0.0149239063     2     4     4    10
 0.0071679206     2     4     5     5
 -0.0089961972     2     4     6     1
 -0.0384246286     2     4     6     2
 -0.0110140200     2     4     6     6
 0.0004075118     2     4     6     9
 0.0202755047     2     4     6    10
 0.0009301003     2     4     7     3
 -0.0142385918     2     4     7     7
 -0.0040865268     2     4     7     8
 -0.0055793962     2     4     8     3
 0.0047510173     2     4     8     7
 -0.0189916910     2     4     8     8
 0.0161166356     2     4     9     1
 0.0448262391     2     4     9     2
 -0.0037376599     2     4     9     6
 -0.0281836879     2     4     9     9
 0.0098418426     2     4     9    10
 0.0344496263     2     4    10     1
 0.1042047943     2     4    10     2
 -0.0039774795     2     4    10     6
 0.0321773874     2     4    10     9
 0.0179198488     2     4    10    10
 -0.0408361152     2     5     5     1
 -0.5825178319     2     5     5     2
 -0.0071679206     2     5     5     4
 0.0704126853     2     5     5     6
 -0.0303732619     2     5     5     9
 -0.0078276734     2     5     5    10
 -0.1597913781     2     6     1     1
 -0.0018563771     2     6     1     2
 0.0001734952     2     6     1     4
 0.0009533095     2     6     1     9
 0.0035931034     2     6     1    10
 -0.0725705272     2     6     3     3
 0.0179804240     2     6     3     7
 -0.0035854310     2     6     3     8
 -0.0084134895     2     6     4     1
 -0.0384246286     2     6     4     2
 -0.0718050221     2     6     4     4
 0.0040241814     2     6     4     9
 0.0221526966     2     6     4    10
 -0.0704126853     2     6     5     5
 -0.0027982182     2     6     6     1
 -0.3335195672     2     6     6     2
 0.0110140200     2     6     6     4
 0.0119872451     2     6     6     9
 0.0123146389     2     6     6    10
 -0.0209869026     2     6     7     3
 -0.0137316237     2     6     7     7
 0.0225275286     2     6     7     8
 -0.0044167471     2     6     8     3
 0.0127204602     2     6     8     7
 -0.0375454373     2     6     8     8
 0.0050884398     2     6     9     1
 0.0804242753     2     6     9     2
 0.0037376599     2     6     9     4
 -0.0283032880     2     6     9     9
 -0.0045616908     2     6     9    10
 0.0100298286     2     6    10     1
 0.0404066649     2     6    10     2
 0.0039774795     2     6    10     4
 -0.0008302541     2     6    10     9
 -0.0529035010     2     6    10    10
 -0.0031981077     2     7     1     3
 0.0009088650     2     7     1     8
 0.0117442407     2     7     3     1
 0.0777160961     2     7     3     2
 0.0140412708     2     7     3     4
 -0.0179804240     2     7     3     6
 0.0190222984     2     7     3     9
 -0.0034280242     2     7     3    10
 0.0150773631     2     7     4     3
 -0.0082358550     2     7     4     8
 -0.0401617313     2     7     6     3
 0.0098420783     2     7     6     8
 -0.0073373625     2     7     7     1
 -0.3277746431     2     7     7     2
 0.0142385918     2     7     7     4
 0.0137316237     2     7     7     6
 0.0012111202     2     7     7     9
 0.0021335299     2     7     7    10
 0.0074097530     2     7     8     1
 0.0855909747     2     7     8     2
 -0.0047510173     2     7     8     4
 -0.0127204602     2     7     8     6
 0.0040748631     2     7     8     9
 -0.0007642086     2     7     8    10
 0.0147617307     2     7     9     3
 -0.0069362442     2     7     9     8
 -0.0002986204     2     7    10     3
 -0.0021004333     2     7    10     8
 0.0047024231     2     8     1     3
 -0.0009088650     2     8     1     7
 -0.0108722528     2     8     3     1
 -0.0272780507     2     8     3     2
 -0.0342660167     2     8     3     4
 0.0035854310     2     8     3     6
 -0.0010778855     2     8     3     9
 0.0007584771     2     8     3    10
 -0.0393579289     2     8     4     3
 0.0082358550     2     8     4     7
 -0.0001461737     2     8     6     3
 -0.0098420783     2     8     6     7
 0.0064647803     2     8     7     1
 0.0855909747     2     8     7     2
 0.0040865268     2     8     7     4
 -0.0225275286     2     8     7     6
 0.0109671784     2     8     7     9
 0.0015447386     2     8     7    10
 -0.0061432736     2     8     8     1
 -0.4730329459     2     8     8     2
 0.0189916910     2     8     8     4
 0.0375454373     2     8     8     6
 -0.0227813194     2     8     8     9
 -0.0019588761     2     8     8    10
 -0.0537583455     2     8     9     3
 0.0069362442     2     8     9     7
 -0.0051264484     2     8    10     3
 0.0021004333     2     8    10     7
 0.1318640650     2     9     1     1
 0.0039941237     2     9     1     2
 -0.0026969762     2     9     1     4
 -0.0009533095     2     9     1     6
 -0.0035347654     2     9     1    10
 0.0761026358     2     9     3     3
 -0.0190222984     2     9     3     7
 0.0010778855     2     9     3     8
 0.0129115750     2     9     4     1
 0.0448262391     2     9     4     2
 0.0478399434     2     9     4     4
 -0.0040241814     2     9     4     6
 -0.0198339633     2     9     4    10
 0.0303732619     2     9     5     5
 0.0041093018     2     9     6     1
 0.0804242753     2     9     6     2
 -0.0004075118     2     9     6     4
 -0.0119872451     2     9     6     6
 -0.0037553153     2     9     6    10
 -0.0060621182     2     9     7     3
 -0.0012111202     2     9     7     7
 -0.0109671784     2     9     7     8
 -0.0519881333     2     9     8     3
 -0.0040748631     2     9     8     7
 0.0227813194     2     9     8     8
 -0.0069015319     2     9     9     1
 -0.4718508832     2     9     9     2
 0.0281836879     2     9     9     4
 0.0283032880     2     9     9     6
 0.0068672061     2     9     9    10
 -0.0157068329     2     9    10     1
 -0.0243016384     2     9    10     2
 -0.0321773874     2     9    10     4
 0.0008302541     2     9    10     6
 0.0300857377     2     9    10    10
 -0.0156506234     2    10     1     1
 0.0089084700     2    10     1     2
 -0.0114627521     2    10     1     4
 -0.0035931034     2    10     1     6
 0.0035347654     2    10     1     9
 -0.0199030138     2    10     3     3
 0.0034280242     2    10     3     7
 -0.0007584771     2    10     3     8
 0.0219805284     2    10     4     1
 0.1042047943     2    10     4     2
 0.0149239063     2    10     4     4
 -0.0221526966     2    10     4     6
 0.0198339633     2    10     4     9
 0.0078276734     2    10     5     5
 0.0061541195     2    10     6     1
 0.0404066649     2    10     6     2
 -0.0202755047     2    10     6     4
 -0.0123146389     2    10     6     6
 0.0037553153     2    10     6     9
 0.0034210894     2    10     7     3
 -0.0021335299     2    10     7     7
 -0.0015447386     2    10     7     8
 -0.0066030048     2    10     8     3
 0.0007642086     2    10     8     7
 0.0019588761     2    10     8     8
 -0.0119775708     2    10     9     1
 -0.0243016384     2    10     9     2
 -0.0098418426     2    10     9     4
 0.0045616908     2    10     9     6
 -0.0068672061     2    10     9     9
 -0.0266735906     2    10    10     1
 -0.5371705071     2    10    10     2
 -0.0179198488     2    10    10     4
 0.0529035010     2    10    10     6
 -0.0300857377     2    10    10     9
 -0.8594516324     3     1     1     3
 0.2012942202     3     1     1     7
 -0.1372978697     3     1     1     8
 -0.0299813156     3     1     2     3
 0.0117442407     3     1     2     7
 -0.0108722528     3     1     2     8
 -0.0104268555     3     1     4     3
 0.0040834825     3     1     4     7
 -0.0033675181     3     1     4     8
 0.0048419924     3     1     6     3
 -0.0059297081     3     1     6     7
 0.0046967875     3     1     6     8
 -0.0031981077     3     1     7     2
 0.0018162515     3     1     7     4
 -0.0025420447     3     1     7     6
 0.0022149392     3     1     7     9
 -0.0011562735     3     1     7    10
 0.0047024231     3     1     8     2
 -0.0060710704     3     1     8     4
 -0.0003678095     3     1     8     6
 -0.0048475609     3     1     8     9
 0.0022192520     3     1     8    10
 0.0007704609     3     1     9     3
 0.0031401733     3     1     9     7
 -0.0087290243     3     1     9     8
 0.0051712785     3     1    10     3
 -0.0008227926     3     1    10     7
 -0.0033392702     3     1    10     8
 -0.0299813156     3     2     1     3
 0.0155526636     3     2     1     7
 -0.0159945863     3     2     1     8
 -0.5251053132     3     2     2     3
 0.0777160961     3     2     2     7
 -0.0272780507     3     2     2     8
 -0.0032898186     3     2     4     3
 -0.0009301003     3     2     4     7
 0.0055793962     3     2     4     8
 0.0725705272     3     2     6     3
 0.0209869026     3     2     6     7
 0.0044167471     3     2     6     8
 0.0031981077     3     2     7     1
 -0.0150773631     3     2     7     4
 0.0401617313     3     2     7     6
 -0.0147617307     3     2     7     9
 0.0002986204     3     2     7    10
 -0.0047024231     3     2     8     1
 0.0393579289     3     2     8     4
 0.0001461737     3     2     8     6
 0.0537583455     3     2     8     9
 0.0051264484     3     2     8    10
 -0.0761026358     3     2     9     3
 0.0060621182     3     2     9     7
 0.0519881333     3     2     9     8
 0.0199030138     3     2    10     3
 -0.0034210894     3     2    10     7
 0.0066030048     3     2    10     8
 0.8594516324     3     3     1     1
 0.0299813156     3     3     1     2
 0.0104268555     3     3     1     4
 -0.0048419924     3     3     1     6
 -0.0007704609     3     3     1     9
 -0.0051712785     3     3     1    10
 0.0299813156     3     3     2     1
 0.5251053132     3     3     2     2
 0.0032898186     3     3     2     4
 -0.0725705272     3     3     2     6
 0.0761026358     3     3     2     9
 -0.0199030138     3     3     2    10
 0.0104268555     3     3     4     1
 0.0032898186     3     3     4     2
 0.5621541384     3     3     4     4
 0.0389837610     3     3     4     6
 -0.0482627474     3     3     4     9
 -0.0939789202     3     3     4    10
 0.5857826733     3     3     5     5
 -0.0048419924     3     3     6     1
 -0.0725705272     3     3     6     2
 0.0389837610     3     3     6     4
 0.3383631268     3     3     6     6
 -0.0790106620     3     3     6     9
 -0.0388239530     3     3     6    10
 0.3019501912     3     3     7     7
 -0.0580628399     3     3     7     8
 -0.0580628399     3     3     8     7
 0.4337501628     3     3     8     8
 -0.0007704609     3     3     9     1
 0.0761026358     3     3     9     2
 -0.0482627474     3     3     9     4
 -0.0790106620     3     3     9     6
 0.4518770835     3     3     9     9
 0.0262995417     3     3     9    10
 -0.0051712785     3     3    10     1
 -0.0199030138     3     3    10     2
 -0.0939789202     3     3    10     4
 -0.0388239530     3     3    10     6
 0.0262995417     3     3    10     9
 0.5007178736     3     3    10    10
 -0.0104268555     3     4     1     3
 0.0023771577     3     4     1     7
 0.0025586007     3     4     1     8
 -0.0032898186     3     4     2     3
 0.0140412708     3     4     2     7
 -0.0342660167     3     4     2     8
 -0.5621541384     3     4     4     3
 0.0962213079     3     4     4     7
 -0.0562763216     3     4     4     8
 -0.0389837610     3     4     6     3
 0.0032421461     3     4     6     7
 -0.0091165174     3     4     6     8
 -0.0018162515     3     4     7     1
 0.0150773631     3     4     7     2
 -0.0088353615     3     4     7     6
 -0.0052887453     3     4     7     9
 0.0075936327     3     4     7    10
 0.0060710704     3     4     8     1
 -0.0393579289     3     4     8     2
 -0.0029840370     3     4     8     6
 0.0039028202     3     4     8     9
 -0.0143375782     3     4     8    10
 0.0482627474     3     4     9     3
 -0.0141205753     3     4     9     7
 -0.0079819330     3     4     9     8
 0.0939789202     3     4    10     3
 -0.0365590371     3     4    10     7
 0.0336799772     3     4    10     8
 -0.5857826733     3     5     5     3
 0.1021285617     3     5     5     7
 -0.0482409100     3     5     5     8
 0.0048419924     3     6     1     3
 -0.0033387430     3     6     1     7
 0.0050145167     3     6     1     8
 0.0725705272     3     6     2     3
 -0.0179804240     3     6     2     7
 0.0035854310     3     6     2     8
 -0.0389837610     3     6     4     3
 0.0106466049     3     6     4     7
 -0.0052749628     3     6     4     8
 -0.3383631268     3     6     6     3
 0.0355253003     3     6     6     7
 0.0166624826     3     6     6     8
 0.0025420447     3     6     7     1
 -0.0401617313     3     6     7     2
 0.0088353615     3     6     7     4
 0.0334904480     3     6     7     9
 -0.0113242180     3     6     7    10
 0.0003678095     3     6     8     1
 -0.0001461737     3     6     8     2
 0.0029840370     3     6     8     4
 0.0152881144     3     6     8     9
 0.0050419361     3     6     8    10
 0.0790106620     3     6     9     3
 -0.0191861117     3     6     9     7
 0.0169354951     3     6     9     8
 0.0388239530     3     6    10     3
 -0.0034661275     3     6    10     7
 -0.0065475789     3     6    10     8
 -0.2012942202     3     7     1     1
 -0.0155526636     3     7     1     2
 -0.0023771577     3     7     1     4
 0.0033387430     3     7     1     6
 -0.0008905610     3     7     1     9
 -0.0003067644     3     7     1    10
 -0.0117442407     3     7     2     1
 -0.0777160961     3     7     2     2
 -0.0140412708     3     7     2     4
 0.0179804240     3     7     2     6
 -0.0190222984     3     7     2     9
 0.0034280242     3     7     2    10
 -0.0040834825     3     7     4     1
 0.0009301003     3     7     4     2
 -0.0962213079     3     7     4     4
 -0.0106466049     3     7     4     6
 0.0074291995     3     7     4     9
 0.0398890804     3     7     4    10
 -0.1021285617     3     7     5     5
 0.0059297081     3     7     6     1
 -0.0209869026     3     7     6     2