&FCI NORB= 15,NELEC= 10,MS2=0,
 ORBSYM=1,1,1,1,1,1,1,1,1,1,1,1,1,1,1
 ISYM=1,
&END
 0.9831517370     1     1     2     2
 0.0724247265     1     1     2     4
 -0.1817994371     1     1     2     6
 0.1470084616     1     1     2     9
 -0.0170935720     1     1     2    10
 0.1255296896     1     1     2    13
 0.8566377501     1     1     3     3
 -0.2268750292     1     1     3     7
 0.1507581022     1     1     3     8
 -0.3044616527     1     1     3    12
 0.0724247265     1     1     4     2
 0.9533442486     1     1     4     4
 0.1044571883     1     1     4     6
 -0.1565581524     1     1     4     9
 -0.3600309359     1     1     4    10
 0.0813019309     1     1     4    13
 1.0084122273     1     1     5     5
 0.4561815145     1     1     5    11
 -0.0180154011     1     1     5    15
 -0.1817994371     1     1     6     2
 0.1044571883     1     1     6     4
 0.3990686483     1     1     6     6
 -0.1605429231     1     1     6     9
 -0.0848421015     1     1     6    10
 -0.0589177295     1     1     6    13
 -0.2268750292     1     1     7     3
 0.3924270003     1     1     7     7
 -0.1544001487     1     1     7     8
 0.2065781271     1     1     7    12
 0.1507581022     1     1     8     3
 -0.1544001487     1     1     8     7
 0.5538717221     1     1     8     8
 -0.1089739135     1     1     8    12
 0.1470084616     1     1     9     2
 -0.1565581524     1     1     9     4
 -0.1605429231     1     1     9     6
 0.5745996281     1     1     9     9
 0.1223773513     1     1     9    10
 0.0005546158     1     1     9    13
 -0.0170935720     1     1    10     2
 -0.3600309359     1     1    10     4
 -0.0848421015     1     1    10     6
 0.1223773513     1     1    10     9
 0.7946232976     1     1    10    10
 -0.0480888833     1     1    10    13
 0.4561815145     1     1    11     5
 0.9483788847     1     1    11    11
 -0.0306117537     1     1    11    15
 -0.3044616527     1     1    12     3
 0.2065781271     1     1    12     7
 -0.1089739135     1     1    12     8
 0.7471626326     1     1    12    12
 0.1255296896     1     1    13     2
 0.0813019309     1     1    13     4
 -0.0589177295     1     1    13     6
 0.0005546158     1     1    13     9
 -0.0480888833     1     1    13    10
 0.5637784043     1     1    13    13
 0.5155739787     1     1    14    14
 -0.0180154011     1     1    15     5
 -0.0306117537     1     1    15    11
 0.5129048011     1     1    15    15
 -0.9831517370     1     2     2     1
 -0.0068364032     1     2     2     4
 -0.0026017427     1     2     2     6
 0.0044940219     1     2     2     9
 0.0089811801     1     2     2    10
 -0.0007722314     1     2     2    13
 0.0297942483     1     2     3     3
 -0.0165899987     1     2     3     7
 0.0165492666     1     2     3     8
 -0.0333691909     1     2     3    12
 -0.0724247265     1     2     4     1
 0.0355313903     1     2     4     4
 0.0096227522     1     2     4     6
 -0.0169561277     1     2     4     9
 -0.0359853214     1     2     4    10
 0.0049664198     1     2     4    13
 0.0412928579     1     2     5     5
 0.0480570440     1     2     5    11
 -0.0029056496     1     2     5    15
 0.1817994371     1     2     6     1
 0.0096669597     1     2     6     4
 0.0025985643     1     2     6     6
 -0.0049198493     1     2     6     9
 -0.0102102058     1     2     6    10
 0.0013357074     1     2     6    13
 -0.0132313864     1     2     7     3
 0.0073875523     1     2     7     7
 -0.0074586518     1     2     7     8
 0.0153539589     1     2     7    12
 0.0116710821     1     2     8     3
 -0.0064828253     1     2     8     7
 0.0061678096     1     2     8     8
 -0.0127338174     1     2     8    12
 -0.1470084616     1     2     9     1
 -0.0143193158     1     2     9     4
 -0.0039631149     1     2     9     6
 0.0067800552     1     2     9     9
 0.0158180478     1     2     9    10
 -0.0025896030     1     2     9    13
 0.0170935720     1     2    10     1
 -0.0240251614     1     2    10     4
 -0.0061660554     1     2    10     6
 0.0119881633     1     2    10     9
 0.0266793819     1     2    10    10
 -0.0052689007     1     2    10    13
 0.0318367211     1     2    11     5
 0.0405221553     1     2    11    11
 -0.0017108785     1     2    11    15
 -0.0205589918     1     2    12     3
 0.0119173736     1     2    12     7
 -0.0113423733     1     2    12     8
 0.0253902293     1     2    12    12
 -0.1255296896     1     2    13     1
 0.0027373200     1     2    13     4
 0.0006619470     1     2    13     6
 -0.0017529668     1     2    13     9
 -0.0045459162     1     2    13    10
 0.0012098039     1     2    13    13
 -0.0004423264     1     2    14    14
 -0.0009850323     1     2    15     5
 -0.0003548168     1     2    15    11
 -0.0000022568     1     2    15    15
 -0.0031463160     1     3     2     7
 0.0046788746     1     3     2     8
 -0.0124093406     1     3     2    12
 -0.8566377501     1     3     3     1
 -0.0297942483     1     3     3     2
 -0.0103157843     1     3     3     4
 0.0048170717     1     3     3     6
 0.0007881774     1     3     3     9
 0.0050425929     1     3     3    10
 -0.0115757270     1     3     3    13
 0.0018247765     1     3     4     7
 -0.0060788961     1     3     4     8
 -0.0022078553     1     3     4    12
 -0.0059348283     1     3     5    14
 -0.0025076288     1     3     6     7
 -0.0003582730     1     3     6     8
 -0.0017768229     1     3     6    12
 0.2268750292     1     3     7     1
 0.0132313864     1     3     7     2
 0.0045468436     1     3     7     4
 -0.0061580964     1     3     7     6
 0.0033972882     1     3     7     9
 -0.0010029458     1     3     7    10
 0.0051947569     1     3     7    13
 -0.1507581022     1     3     8     1
 -0.0116710821     1     3     8     2
 -0.0036744296     1     3     8     4
 0.0048495060     1     3     8     6
 -0.0088956835     1     3     8     9
 -0.0033266065     1     3     8    10
 -0.0057384906     1     3     8    13
 0.0022591338     1     3     9     7
 -0.0049096889     1     3     9     8
 0.0054446583     1     3     9    12
 -0.0011637671     1     3    10     7
 0.0021819582     1     3    10     8
 -0.0041902329     1     3    10    12
 -0.0000649183     1     3    11    14
 0.3044616527     1     3    12     1
 0.0205589918     1     3    12     2
 0.0071934938     1     3    12     4
 -0.0082155352     1     3    12     6
 0.0059296971     1     3    12     9
 -0.0078736345     1     3    12    10
 0.0093935761     1     3    12    13
 -0.0008417692     1     3    13     7
 -0.0006626346     1     3    13     8
 -0.0037406618     1     3    13    12
 0.0011487527     1     3    14     5
 0.0083502375     1     3    14    11
 -0.0065141323     1     3    14    15
 -0.0061661446     1     3    15    14
 -0.0724247265     1     4     2     1
 0.0068364032     1     4     2     2
 -0.0001679639     1     4     2     6
 -0.0024766381     1     4     2     9
 -0.0114981513     1     4     2    10
 0.0022015180     1     4     2    13
 0.0103157843     1     4     3     3
 -0.0027187354     1     4     3     7
 -0.0024723814     1     4     3     8
 -0.0095255211     1     4     3    12
 -0.9533442486     1     4     4     1
 -0.0355313903     1     4     4     2
 0.0109660525     1     4     4     6
 -0.0129611940     1     4     4     9
 -0.0061413676     1     4     4    10
 0.0004743561     1     4     4    13
 0.0138990362     1     4     5     5
 0.0152961141     1     4     5    11
 0.0055732850     1     4     5    15
 -0.1044571883     1     4     6     1
 -0.0096669597     1     4     6     2
 0.0056513454     1     4     6     6
 -0.0052241651     1     4     6     9
 -0.0023384398     1     4     6    10
 -0.0011170994     1     4     6    13
 -0.0045468436     1     4     7     3
 0.0039035523     1     4     7     7
 -0.0017070257     1     4     7     8
 0.0067959055     1     4     7    12
 0.0036744296     1     4     8     3
 -0.0041396054     1     4     8     7
 0.0062425721     1     4     8     8
 -0.0109135160     1     4     8    12
 0.1565581524     1     4     9     1
 0.0143193158     1     4     9     2
 -0.0070577857     1     4     9     6
 0.0111358425     1     4     9     9
 -0.0001952586     1     4     9    10
 0.0035324012     1     4     9    13
 0.3600309359     1     4    10     1
 0.0240251614     1     4    10     2
 -0.0122460996     1     4    10     6
 0.0104267229     1     4    10     9
 0.0045933649     1     4    10    10
 0.0096028876     1     4    10    13
 0.0109575803     1     4    11     5
 0.0135759273     1     4    11    11
 -0.0000607486     1     4    11    15
 -0.0071934938     1     4    12     3
 0.0035421582     1     4    12     7
 -0.0028161778     1     4    12     8
 0.0056084718     1     4    12    12
 -0.0813019309     1     4    13     1
 -0.0027373200     1     4    13     2
 0.0003261757     1     4    13     6
 0.0018628747     1     4    13     9
 0.0091635948     1     4    13    10
 0.0004421335     1     4    13    13
 0.0061552043     1     4    14    14
 -0.0012672672     1     4    15     5
 -0.0084506040     1     4    15    11
 0.0042841623     1     4    15    15
 0.0156657380     1     5     2    11
 -0.0018095497     1     5     2    15
 -0.0070112735     1     5     3    14
 0.0042345633     1     5     4    11
 0.0066961960     1     5     4    15
 -1.0084122273     1     5     5     1
 -0.0412928579     1     5     5     2
 -0.0138990362     1     5     5     4
 0.0103369937     1     5     5     6
 -0.0125231479     1     5     5     9
 0.0093441442     1     5     5    10
 -0.0124203542     1     5     5    13
 0.0002319120     1     5     6    11
 0.0010976913     1     5     6    15
 0.0013939191     1     5     7    14
 -0.0006897632     1     5     8    14
 0.0048652338     1     5     9    11
 0.0002682554     1     5     9    15
 -0.0025633676     1     5    10    11
 -0.0016143580     1     5    10    15
 -0.4561815145     1     5    11     1
 -0.0318367211     1     5    11     2
 -0.0109575803     1     5    11     4
 0.0131417887     1     5    11     6
 -0.0108449447     1     5    11     9
 0.0078163279     1     5    11    10
 -0.0144051219     1     5    11    13
 0.0008741475     1     5    12    14
 0.0006143483     1     5    13    11
 -0.0008678663     1     5    13    15
 -0.0011487527     1     5    14     3
 -0.0018828651     1     5    14     7
 0.0023504183     1     5    14     8
 -0.0059275246     1     5    14    12
 0.0180154011     1     5    15     1
 0.0009850323     1     5    15     2
 0.0012672672     1     5    15     4
 -0.0014513829     1     5    15     6
 0.0042481501     1     5    15     9
 0.0046666444     1     5    15    10
 -0.0011902056     1     5    15    13
 0.1817994371     1     6     2     1
 0.0026017427     1     6     2     2
 0.0001679639     1     6     2     4
 -0.0009618919     1     6     2     9
 -0.0039181918     1     6     2    10
 0.0006317065     1     6     2    13
 -0.0048170717     1     6     3     3
 0.0036547198     1     6     3     7
 -0.0052213157     1     6     3     8
 0.0064902458     1     6     3    12
 -0.1044571883     1     6     4     1
 -0.0096227522     1     6     4     2
 -0.0109660525     1     6     4     4
 0.0018794731     1     6     4     9
 0.0099466981     1     6     4    10
 -0.0014839644     1     6     4    13
 -0.0103369937     1     6     5     5
 -0.0127634320     1     6     5    11
 0.0025659761     1     6     5    15
 -0.3990686483     1     6     6     1
 -0.0025985643     1     6     6     2
 -0.0056513454     1     6     6     4
 0.0013491021     1     6     6     9
 0.0051345243     1     6     6    10
 -0.0011326466     1     6     6    13
 0.0061580964     1     6     7     3
 -0.0029212942     1     6     7     7
 0.0034434640     1     6     7     8
 -0.0063973017     1     6     7    12
 -0.0048495060     1     6     8     3
 0.0020188300     1     6     8     7
 -0.0012112042     1     6     8     8
 0.0034121621     1     6     8    12
 0.1605429231     1     6     9     1
 0.0039631149     1     6     9     2
 0.0070577857     1     6     9     4
 -0.0002532127     1     6     9     9
 -0.0075627552     1     6     9    10
 0.0021369749     1     6     9    13
 0.0848421015     1     6    10     1
 0.0061660554     1     6    10     2
 0.0122460996     1     6    10     4
 -0.0032928867     1     6    10     9
 -0.0116752852     1     6    10    10
 0.0049390642     1     6    10    13
 -0.0131417887     1     6    11     5
 -0.0158571911     1     6    11    11
 0.0008179296     1     6    11    15
 0.0082155352     1     6    12     3
 -0.0047200219     1     6    12     7
 0.0047204048     1     6    12     8
 -0.0103664766     1     6    12    12
 0.0589177295     1     6    13     1
 -0.0006619470     1     6    13     2
 -0.0003261757     1     6    13     4
 0.0007929284     1     6    13     9
 0.0033999616     1     6    13    10
 -0.0000314985     1     6    13    13
 0.0019186488     1     6    14    14
 0.0014513829     1     6    15     5
 -0.0005280235     1     6    15    11
 0.0011921237     1     6    15    15
 0.0031463160     1     7     2     3
 -0.0009687064     1     7     2     8
 0.0032755139     1     7     2    12
 0.2268750292     1     7     3     1
 0.0165899987     1     7     3     2
 0.0027187354     1     7     3     4
 -0.0036547198     1     7     3     6
 0.0011364809     1     7     3     9
 0.0002118555     1     7     3    10
 0.0060533720     1     7     3    13
 -0.0018247765     1     7     4     3
 0.0024121072     1     7     4     8
 0.0031795022     1     7     4    12
 0.0033299368     1     7     5    14
 0.0025076288     1     7     6     3
 0.0014237401     1     7     6     8
 -0.0016645566     1     7     6    12
 -0.3924270003     1     7     7     1
 -0.0073875523     1     7     7     2
 -0.0039035523     1     7     7     4
 0.0029212942     1     7     7     6
 -0.0012267717     1     7     7     9
 0.0018624352     1     7     7    10
 -0.0030394932     1     7     7    13
 0.1544001487     1     7     8     1
 0.0064828253     1     7     8     2
 0.0041396054     1     7     8     4
 -0.0020188300     1     7     8     6
 0.0037119469     1     7     8     9
 -0.0002868921     1     7     8    10
 0.0034229866     1     7     8    13
 -0.0022591338     1     7     9     3
 0.0014729674     1     7     9     8
 -0.0004986738     1     7     9    12
 0.0011637671     1     7    10     3
 -0.0005861055     1     7    10     8
 0.0009920730     1     7    10    12
 0.0000367524     1     7    11    14
 -0.2065781271     1     7    12     1
 -0.0119173736     1     7    12     2
 -0.0035421582     1     7    12     4
 0.0047200219     1     7    12     6
 -0.0035899162     1     7    12     9
 0.0037513275     1     7    12    10
 -0.0051263618     1     7    12    13
 0.0008417692     1     7    13     3
 0.0007734704     1     7    13     8
 0.0011458447     1     7    13    12
 0.0018828651     1     7    14     5
 -0.0016955843     1     7    14    11
 0.0033655017     1     7    14    15
 0.0032982190     1     7    15    14
 -0.0046788746     1     8     2     3
 0.0009687064     1     8     2     7
 -0.0012688640     1     8     2    12
 -0.1507581022     1     8     3     1
 -0.0165492666     1     8     3     2
 0.0024723814     1     8     3     4
 0.0052213157     1     8     3     6
 -0.0039841029     1     8     3     9
 -0.0054487781     1     8     3    10
 -0.0051532924     1     8     3    13
 0.0060788961     1     8     4     3
 -0.0024121072     1     8     4     7
 -0.0079595986     1     8     4    12
 -0.0030928592     1     8     5    14
 0.0003582730     1     8     6     3
 -0.0014237401     1     8     6     7
 -0.0013248147     1     8     6    12
 0.1544001487     1     8     7     1
 0.0074586518     1     8     7     2
 0.0017070257     1     8     7     4
 -0.0034434640     1     8     7     6
 0.0022446176     1     8     7     9
 0.0003126153     1     8     7    10
 0.0026505911     1     8     7    13
 -0.5538717221     1     8     8     1
 -0.0061678096     1     8     8     2
 -0.0062425721     1     8     8     4
 0.0012112042     1     8     8     6
 -0.0023809958     1     8     8     9
 0.0024223354     1     8     8    10
 -0.0034517451     1     8     8    13
 0.0049096889     1     8     9     3
 -0.0014729674     1     8     9     7
 -0.0024067331     1     8     9    12
 -0.0021819582     1     8    10     3
 0.0005861055     1     8    10     7
 0.0003133578     1     8    10    12
 -0.0001068394     1     8    11    14
 0.1089739135     1     8    12     1
 0.0113423733     1     8    12     2
 0.0028161778     1     8    12     4
 -0.0047204048     1     8    12     6
 0.0037318056     1     8    12     9
 -0.0029335882     1     8    12    10
 0.0048712117     1     8    12    13
 0.0006626346     1     8    13     3
 -0.0007734704     1     8    13     7
 -0.0025912424     1     8    13    12
 -0.0023504183     1     8    14     5
 0.0008969839     1     8    14    11
 -0.0030535709     1     8    14    15
 -0.0030308346     1     8    15    14
 -0.1470084616     1     9     2     1
 -0.0044940219     1     9     2     2
 0.0024766381     1     9     2     4
 0.0009618919     1     9     2     6
 0.0037208855     1     9     2    10
 -0.0008187571     1     9     2    13
 -0.0007881774     1     9     3     3
 -0.0011364809     1     9     3     7
 0.0039841029     1     9     3     8
 -0.0005428600     1     9     3    12
 0.1565581524     1     9     4     1
 0.0169561277     1     9     4     2
 0.0129611940     1     9     4     4
 -0.0018794731     1     9     4     6
 -0.0106414520     1     9     4    10
 0.0017578703     1     9     4    13
 0.0125231479     1     9     5     5
 0.0154804901     1     9     5    11
 -0.0040211295     1     9     5    15
 0.1605429231     1     9     6     1
 0.0049198493     1     9     6     2
 0.0052241651     1     9     6     4
 -0.0013491021     1     9     6     6
 -0.0042688366     1     9     6    10
 0.0013449971     1     9     6    13
 -0.0033972882     1     9     7     3
 0.0012267717     1     9     7     7
 -0.0022446176     1     9     7     8
 0.0030836418     1     9     7    12
 0.0088956835     1     9     8     3
 -0.0037119469     1     9     8     7
 0.0023809958     1     9     8     8
 -0.0061356475     1     9     8    12
 -0.5745996281     1     9     9     1
 -0.0067800552     1     9     9     2
 -0.0111358425     1     9     9     4
 0.0002532127     1     9     9     6
 0.0116504543     1     9     9    10
 -0.0034467951     1     9     9    13
 -0.1223773513     1     9    10     1
 -0.0119881633     1     9    10     2
 -0.0104267229     1     9    10     4
 0.0032928867     1     9    10     6
 0.0090779244     1     9    10    10
 -0.0068501246     1     9    10    13
 0.0108449447     1     9    11     5
 0.0134193748     1     9    11    11
 -0.0008662771     1     9    11    15
 -0.0059296971     1     9    12     3
 0.0035899162     1     9    12     7
 -0.0037318056     1     9    12     8
 0.0085172652     1     9    12    12
 -0.0005546158     1     9    13     1
 0.0017529668     1     9    13     2
 -0.0018628747     1     9    13     4
 -0.0007929284     1     9    13     6
 -0.0031302451     1     9    13    10
 -0.0001944040     1     9    13    13
 -0.0031131630     1     9    14    14
 -0.0042481501     1     9    15     5
 -0.0011940617     1     9    15    11
 -0.0018368870     1     9    15    15
 0.0170935720     1    10     2     1
 -0.0089811801     1    10     2     2
 0.0114981513     1    10     2     4
 0.0039181918     1    10     2     6
 -0.0037208855     1    10     2     9
 -0.0007381754     1    10     2    13
 -0.0050425929     1    10     3     3
 -0.0002118555     1    10     3     7
 0.0054487781     1    10     3     8
 0.0036555423     1    10     3    12
 0.3600309359     1    10     4     1
 0.0359853214     1    10     4     2
 0.0061413676     1    10     4     4
 -0.0099466981     1    10     4     6
 0.0106414520     1    10     4     9
 0.0006116031     1    10     4    13
 -0.0093441442     1    10     5     5
 -0.0100936468     1    10     5    11
 -0.0063097656     1    10     5    15
 0.0848421015     1    10     6     1
 0.0102102058     1    10     6     2
 0.0023384398     1    10     6     4
 -0.0051345243     1    10     6     6
 0.0042688366     1    10     6     9
 0.0015384270     1    10     6    13
 0.0010029458     1    10     7     3
 -0.0018624352     1    10     7     7
 -0.0003126153     1    10     7     8
 -0.0027490441     1    10     7    12
 0.0033266065     1    10     8     3
 0.0002868921     1    10     8     7
 -0.0024223354     1    10     8     8
 0.0032230865     1    10     8    12
 -0.1223773513     1    10     9     1
 -0.0158180478     1    10     9     2
 0.0001952586     1    10     9     4
 0.0075627552     1    10     9     6
 -0.0116504543     1    10     9     9
 -0.0037204956     1    10     9    13
 -0.7946232976     1    10    10     1
 -0.0266793819     1    10    10     2
 -0.0045933649     1    10    10     4
 0.0116752852     1    10    10     6
 -0.0090779244     1    10    10     9
 -0.0109451720     1    10    10    13
 -0.0078163279     1    10    11     5
 -0.0093870062     1    10    11    11
 -0.0002314009     1    10    11    15
 0.0078736345     1    10    12     3
 -0.0037513275     1    10    12     7
 0.0029335882     1    10    12     8
 -0.0058623989     1    10    12    12
 0.0480888833     1    10    13     1
 0.0045459162     1    10    13     2
 -0.0091635948     1    10    13     4
 -0.0033999616     1    10    13     6
 0.0031302451     1    10    13     9
 -0.0013396341     1    10    13    13
 -0.0060594045     1    10    14    14
 -0.0046666444     1    10    15     5
 0.0018158156     1    10    15    11
 -0.0038582640     1    10    15    15
 -0.0156657380     1    11     2     5
 -0.0013019463     1    11     2    15
 -0.0081318492     1    11     3    14
 -0.0042345633     1    11     4     5
 0.0080765965     1    11     4    15
 -0.4561815145     1    11     5     1
 -0.0480570440     1    11     5     2
 -0.0152961141     1    11     5     4
 0.0127634320     1    11     5     6
 -0.0154804901     1    11     5     9
 0.0100936468     1    11     5    10
 -0.0148644693     1    11     5    13
 -0.0002319120     1    11     6     5
 0.0013562100     1    11     6    15
 0.0017487622     1    11     7    14
 -0.0010325729     1    11     8    14
 -0.0048652338     1    11     9     5
 0.0003097009     1    11     9    15
 0.0025633676     1    11    10     5
 -0.0020475391     1    11    10    15
 -0.9483788847     1    11    11     1
 -0.0405221553     1    11    11     2
 -0.0135759273     1    11    11     4
 0.0158571911     1    11    11     6
 -0.0134193748     1    11    11     9
 0.0093870062     1    11    11    10
 -0.0175252419     1    11    11    13
 0.0010787855     1    11    12    14
 -0.0006143483     1    11    13     5
 -0.0009856056     1    11    13    15
 -0.0083502375     1    11    14     3
 0.0016955843     1    11    14     7
 -0.0008969839     1    11    14     8
 0.0009049108     1    11    14    12
 0.0306117537     1    11    15     1
 0.0003548168     1    11    15     2
 0.0084506040     1    11    15     4
 0.0005280235     1    11    15     6
 0.0011940617     1    11    15     9
 -0.0018158156     1    11    15    10
 -0.0003635339     1    11    15    13
 0.0124093406     1    12     2     3
 -0.0032755139     1    12     2     7
 0.0012688640     1    12     2     8
 0.3044616527     1    12     3     1
 0.0333691909     1    12     3     2
 0.0095255211     1    12     3     4
 -0.0064902458     1    12     3     6
 0.0005428600     1    12     3     9
 -0.0036555423     1    12     3    10
 0.0131674317     1    12     3    13
 0.0022078553     1    12     4     3
 -0.0031795022     1    12     4     7
 0.0079595986     1    12     4     8
 0.0068552262     1    12     5    14
 0.0017768229     1    12     6     3
 0.0016645566     1    12     6     7
 0.0013248147     1    12     6     8
 -0.2065781271     1    12     7     1
 -0.0153539589     1    12     7     2
 -0.0067959055     1    12     7     4
 0.0063973017     1    12     7     6
 -0.0030836418     1    12     7     9
 0.0027490441     1    12     7    10
 -0.0062926419     1    12     7    13
 0.1089739135     1    12     8     1
 0.0127338174     1    12     8     2
 0.0109135160     1    12     8     4
 -0.0034121621     1    12     8     6
 0.0061356475     1    12     8     9
 -0.0032230865     1    12     8    10
 0.0074735422     1    12     8    13
 -0.0054446583     1    12     9     3
 0.0004986738     1    12     9     7
 0.0024067331     1    12     9     8
 0.0041902329     1    12    10     3
 -0.0009920730     1    12    10     7
 -0.0003133578     1    12    10     8
 0.0001933614     1    12    11    14
 -0.7471626326     1    12    12     1
 -0.0253902293     1    12    12     2
 -0.0056084718     1    12    12     4
 0.0103664766     1    12    12     6
 -0.0085172652     1    12    12     9
 0.0058623989     1    12    12    10
 -0.0105405275     1    12    12    13
 0.0037406618     1    12    13     3
 -0.0011458447     1    12    13     7
 0.0025912424     1    12    13     8
 0.0059275246     1    12    14     5
 -0.0009049108     1    12    14    11
 0.0065808002     1    12    14    15
 0.0065384687     1    12    15    14
 -0.1255296896     1    13     2     1
 0.0007722314     1    13     2     2
 -0.0022015180     1    13     2     4
 -0.0006317065     1    13     2     6
 0.0008187571     1    13     2     9
 0.0007381754     1    13     2    10
 0.0115757270     1    13     3     3
 -0.0060533720     1    13     3     7
 0.0051532924     1    13     3     8
 -0.0131674317     1    13     3    12
 -0.0813019309     1    13     4     1
 -0.0049664198     1    13     4     2
 -0.0004743561     1    13     4     4
 0.0014839644     1    13     4     6
 -0.0017578703     1    13     4     9
 -0.0006116031     1    13     4    10
 0.0124203542     1    13     5     5
 0.0148644693     1    13     5    11
 0.0003278230     1    13     5    15
 0.0589177295     1    13     6     1
 -0.0013357074     1    13     6     2
 0.0011170994     1    13     6     4
 0.0011326466     1    13     6     6
 -0.0013449971     1    13     6     9
 -0.0015384270     1    13     6    10
 -0.0051947569     1    13     7     3
 0.0030394932     1    13     7     7
 -0.0026505911     1    13     7     8
 0.0062926419     1    13     7    12
 0.0057384906     1    13     8     3
 -0.0034229866     1    13     8     7
 0.0034517451     1    13     8     8
 -0.0074735422     1    13     8    12
 -0.0005546158     1    13     9     1
 0.0025896030     1    13     9     2
 -0.0035324012     1    13     9     4
 -0.0021369749     1    13     9     6
 0.0034467951     1    13     9     9
 0.0037204956     1    13     9    10
 0.0480888833     1    13    10     1
 0.0052689007     1    13    10     2
 -0.0096028876     1    13    10     4
 -0.0049390642     1    13    10     6
 0.0068501246     1    13    10     9
 0.0109451720     1    13    10    10
 0.0144051219     1    13    11     5
 0.0175252419     1    13    11    11
 -0.0006228118     1    13    11    15
 -0.0093935761     1    13    12     3
 0.0051263618     1    13    12     7
 -0.0048712117     1    13    12     8
 0.0105405275     1    13    12    12
 -0.5637784043     1    13    13     1
 -0.0012098039     1    13    13     2
 -0.0004421335     1    13    13     4
 0.0000314985     1    13    13     6
 0.0001944040     1    13    13     9
 0.0013396341     1    13    13    10
 0.0007914311     1    13    14    14
 0.0011902056     1    13    15     5
 0.0003635339     1    13    15    11
 0.0004256998     1    13    15    15
 0.0070112735     1    14     3     5
 0.0081318492     1    14     3    11
 -0.0003688597     1    14     3    15
 0.0059348283     1    14     5     3
 -0.0033299368     1    14     5     7
 0.0030928592     1    14     5     8
 -0.0068552262     1    14     5    12
 -0.0013939191     1    14     7     5
 -0.0017487622     1    14     7    11
 0.0000680371     1    14     7    15
 0.0006897632     1    14     8     5
 0.0010325729     1    14     8    11
 -0.0000225181     1    14     8    15
 0.0000649183     1    14    11     3
 -0.0000367524     1    14    11     7
 0.0001068394     1    14    11     8
 -0.0001933614     1    14    11    12
 -0.0008741475     1    14    12     5
 -0.0010787855     1    14    12    11
 0.0000426253     1    14    12    15
 -0.5155739787     1    14    14     1
 0.0004423264     1    14    14     2
 -0.0061552043     1    14    14     4
 -0.0019186488     1    14    14     6
 0.0031131630     1    14    14     9
 0.0060594045     1    14    14    10
 -0.0007914311     1    14    14    13
 0.0061661446     1    14    15     3
 -0.0032982190     1    14    15     7
 0.0030308346     1    14    15     8
 -0.0065384687     1    14    15    12
 0.0018095497     1    15     2     5
 0.0013019463     1    15     2    11
 0.0003688597     1    15     3    14
 -0.0066961960     1    15     4     5
 -0.0080765965     1    15     4    11
 0.0180154011     1    15     5     1
 0.0029056496     1    15     5     2
 -0.0055732850     1    15     5     4
 -0.0025659761     1    15     5     6
 0.0040211295     1    15     5     9
 0.0063097656     1    15     5    10
 -0.0003278230     1    15     5    13
 -0.0010976913     1    15     6     5
 -0.0013562100     1    15     6    11
 -0.0000680371     1    15     7    14
 0.0000225181     1    15     8    14
 -0.0002682554     1    15     9     5
 -0.0003097009     1    15     9    11
 0.0016143580     1    15    10     5
 0.0020475391     1    15    10    11
 0.0306117537     1    15    11     1
 0.0017108785     1    15    11     2