&FCI NORB= 11,NELEC= 10,MS2=0,
 ORBSYM=1,1,1,1,1,1,1,1,1,1,1
 ISYM=1,
&END
 1.0046607341     1     1     2     2
 -0.0629011165     1     1     2     3
 -0.0471069734     1     1     2     5
 -0.0678586453     1     1     2     6
 0.1178047284     1     1     2     7
 0.0084747079     1     1     2     8
 0.0702827859     1     1     2     9
 0.0459419087     1     1     2    11
 -0.0629011165     1     1     3     2
 0.9127097406     1     1     3     3
 0.0621761171     1     1     3     5
 0.0530868154     1     1     3     6
 0.1222761796     1     1     3     7
 0.0014389354     1     1     3     8
 -0.0148937476     1     1     3     9
 0.2699954035     1     1     3    11
 1.0181486474     1     1     4     4
 -0.2015043802     1     1     4    10
 -0.0471069734     1     1     5     2
 0.0621761171     1     1     5     3
 0.6875464842     1     1     5     5
 -0.3258428901     1     1     5     6
 -0.0394763838     1     1     5     7
 0.0410748705     1     1     5     8
 -0.0400008822     1     1     5     9
 0.0771873911     1     1     5    11
 -0.0678586453     1     1     6     2
 0.0530868154     1     1     6     3
 -0.3258428901     1     1     6     5
 0.5207253913     1     1     6     6
 0.0195855553     1     1     6     7
 -0.0818306829     1     1     6     8
 0.0113762456     1     1     6     9
 -0.0167015010     1     1     6    11
 0.1178047284     1     1     7     2
 0.1222761796     1     1     7     3
 -0.0394763838     1     1     7     5
 0.0195855553     1     1     7     6
 0.3108312083     1     1     7     7
 -0.0149256419     1     1     7     8
 0.0421495711     1     1     7     9
 0.1130062083     1     1     7    11
 0.0084747079     1     1     8     2
 0.0014389354     1     1     8     3
 0.0410748705     1     1     8     5
 -0.0818306829     1     1     8     6
 -0.0149256419     1     1     8     7
 0.2193614998     1     1     8     8
 -0.0073248337     1     1     8     9
 0.0123160096     1     1     8    11
 0.0702827859     1     1     9     2
 -0.0148937476     1     1     9     3
 -0.0400008822     1     1     9     5
 0.0113762456     1     1     9     6
 0.0421495711     1     1     9     7
 -0.0073248337     1     1     9     8
 0.3336168040     1     1     9     9
 0.0287136471     1     1     9    11
 -0.2015043802     1     1    10     4
 0.3475575817     1     1    10    10
 0.0459419087     1     1    11     2
 0.2699954035     1     1    11     3
 0.0771873911     1     1    11     5
 -0.0167015010     1     1    11     6
 0.1130062083     1     1    11     7
 0.0123160096     1     1    11     8
 0.0287136471     1     1    11     9
 0.4972718319     1     1    11    11
 -1.0046607341     1     2     2     1
 0.0063837076     1     2     2     3
 0.0002304077     1     2     2     5
 0.0006087116     1     2     2     6
 0.0024377860     1     2     2     7
 -0.0000329270     1     2     2     8
 0.0004977575     1     2     2     9
 0.0051580000     1     2     2    11
 0.0629011165     1     2     3     1
 0.0344461530     1     2     3     3
 0.0036561602     1     2     3     5
 0.0022924131     1     2     3     6
 0.0098930584     1     2     3     7
 0.0000255585     1     2     3     8
 0.0012761640     1     2     3     9
 0.0232429083     1     2     3    11
 0.0440833289     1     2     4     4
 -0.0157317085     1     2     4    10
 0.0471069734     1     2     5     1
 0.0031041125     1     2     5     3
 0.0229077953     1     2     5     5
 -0.0186428632     1     2     5     6
 -0.0016460890     1     2     5     7
 0.0036015930     1     2     5     8
 -0.0025057755     1     2     5     9
 0.0056707321     1     2     5    11
 0.0678586453     1     2     6     1
 0.0016472776     1     2     6     3
 -0.0179181413     1     2     6     5
 0.0155875946     1     2     6     6
 0.0025386380     1     2     6     7
 -0.0030029274     1     2     6     8
 0.0020085865     1     2     6     9
 -0.0017308332     1     2     6    11
 -0.1178047284     1     2     7     1
 0.0094871864     1     2     7     3
 -0.0013326438     1     2     7     5
 0.0026569752     1     2     7     6
 0.0026457577     1     2     7     7
 -0.0004094614     1     2     7     8
 0.0005516224     1     2     7     9
 0.0056958412     1     2     7    11
 -0.0084747079     1     2     8     1
 0.0001107398     1     2     8     3
 0.0033169414     1     2     8     5
 -0.0028722541     1     2     8     6
 -0.0003753633     1     2     8     7
 0.0006868492     1     2     8     8
 -0.0004459877     1     2     8     9
 0.0006440277     1     2     8    11
 -0.0702827859     1     2     9     1
 0.0012381771     1     2     9     3
 -0.0020508758     1     2     9     5
 0.0017482134     1     2     9     6
 0.0005224262     1     2     9     7
 -0.0004112270     1     2     9     8
 0.0003979867     1     2     9     9
 -0.0001057800     1     2     9    11
 -0.0132176158     1     2    10     4
 0.0049614309     1     2    10    10
 -0.0459419087     1     2    11     1
 0.0190973799     1     2    11     3
 0.0050209555     1     2    11     5
 -0.0010936201     1     2    11     6
 0.0047121845     1     2    11     7
 0.0005105434     1     2    11     8
 -0.0002423934     1     2    11     9
 0.0127900102     1     2    11    11
 0.0629011165     1     3     2     1
 -0.0063837076     1     3     2     2
 0.0005520477     1     3     2     5
 0.0006451355     1     3     2     6
 0.0004058720     1     3     2     7
 -0.0000851813     1     3     2     8
 0.0000379869     1     3     2     9
 0.0041455284     1     3     2    11
 -0.9127097406     1     3     3     1
 -0.0344461530     1     3     3     2
 0.0017377937     1     3     3     5
 0.0032041966     1     3     3     6
 -0.0055626738     1     3     3     7
 -0.0007018641     1     3     3     8
 -0.0004750843     1     3     3     9
 -0.0022396881     1     3     3    11
 -0.0126599144     1     3     4     4
 0.0048709522     1     3     4    10
 -0.0621761171     1     3     5     1
 -0.0031041125     1     3     5     2
 -0.0060822750     1     3     5     5
 0.0065331708     1     3     5     6
 0.0002515566     1     3     5     7
 -0.0017430857     1     3     5     8
 -0.0005550451     1     3     5     9
 -0.0012276627     1     3     5    11
 -0.0530868154     1     3     6     1
 -0.0016472776     1     3     6     2
 0.0054977716     1     3     6     5
 -0.0037990265     1     3     6     6
 -0.0005276364     1     3     6     7
 0.0009413179     1     3     6     8
 -0.0004883775     1     3     6     9
 0.0010467468     1     3     6    11
 -0.1222761796     1     3     7     1
 -0.0094871864     1     3     7     2
 0.0012898990     1     3     7     5
 0.0007383540     1     3     7     6
 -0.0041524434     1     3     7     7
 -0.0002188420     1     3     7     8
 -0.0008729647     1     3     7     9
 -0.0030410893     1     3     7    11
 -0.0014389354     1     3     8     1
 -0.0001107398     1     3     8     2
 -0.0010505803     1     3     8     5
 0.0006021957     1     3     8     6
 -0.0000762261     1     3     8     7
 0.0004062841     1     3     8     8
 -0.0004545448     1     3     8     9
 0.0001394157     1     3     8    11
 0.0148937476     1     3     9     1
 -0.0012381771     1     3     9     2
 0.0001717675     1     3     9     5
 -0.0009273214     1     3     9     6
 -0.0010211843     1     3     9     7
 -0.0003183265     1     3     9     8
 -0.0000968388     1     3     9     9
 -0.0040748844     1     3     9    11
 0.0036900480     1     3    10     4
 -0.0005034579     1     3    10    10
 -0.2699954035     1     3    11     1
 -0.0190973799     1     3    11     2
 0.0004139302     1     3    11     5
 0.0033501043     1     3    11     6
 -0.0062279640     1     3    11     7
 -0.0004063838     1     3    11     8
 -0.0044556978     1     3    11     9
 -0.0057831754     1     3    11    11
 -0.0025140927     1     4     2    10
 0.0011809042     1     4     3    10
 -1.0181486474     1     4     4     1
 -0.0440833289     1     4     4     2
 0.0126599144     1     4     4     3
 0.0036276743     1     4     4     5
 0.0054765010     1     4     4     6
 -0.0060129671     1     4     4     7
 -0.0011417077     1     4     4     8
 -0.0067990515     1     4     4     9
 -0.0008449835     1     4     4    11
 -0.0013016857     1     4     5    10
 -0.0000498182     1     4     6    10
 0.0009119862     1     4     7    10
 -0.0005333492     1     4     8    10
 -0.0004380881     1     4     9    10
 0.2015043802     1     4    10     1
 0.0132176158     1     4    10     2
 -0.0036900480     1     4    10     3
 -0.0018470426     1     4    10     5
 -0.0027181925     1     4    10     6
 0.0029026178     1     4    10     7
 0.0000068759     1     4    10     8
 0.0019211135     1     4    10     9
 -0.0004391301     1     4    10    11
 -0.0006542133     1     4    11    10
 0.0471069734     1     5     2     1
 -0.0002304077     1     5     2     2
 -0.0005520477     1     5     2     3
 -0.0007247219     1     5     2     6
 -0.0003134452     1     5     2     7
 0.0002846516     1     5     2     8
 -0.0004548997     1     5     2     9
 0.0006497766     1     5     2    11
 -0.0621761171     1     5     3     1
 -0.0036561602     1     5     3     2
 -0.0017377937     1     5     3     3
 0.0010353992     1     5     3     6
 -0.0010383424     1     5     3     7
 -0.0006925054     1     5     3     8
 -0.0007268126     1     5     3     9
 -0.0016415929     1     5     3    11
 -0.0036276743     1     5     4     4
 0.0005453569     1     5     4    10
 -0.6875464842     1     5     5     1
 -0.0229077953     1     5     5     2
 0.0060822750     1     5     5     3
 0.0016827344     1     5     5     6
 -0.0033320900     1     5     5     7
 0.0004980051     1     5     5     8
 -0.0037917404     1     5     5     9
 -0.0012269306     1     5     5    11
 0.3258428901     1     5     6     1
 0.0179181413     1     5     6     2
 -0.0054977716     1     5     6     3
 -0.0051873644     1     5     6     6
 0.0020005604     1     5     6     7
 0.0008315453     1     5     6     8
 0.0025351067     1     5     6     9
 0.0005787231     1     5     6    11
 0.0394763838     1     5     7     1
 0.0013326438     1     5     7     2
 -0.0012898990     1     5     7     3
 -0.0004989407     1     5     7     6
 -0.0000634760     1     5     7     7
 0.0001871061     1     5     7     8
 0.0003415815     1     5     7     9
 -0.0009507901     1     5     7    11
 -0.0410748705     1     5     8     1
 -0.0033169414     1     5     8     2
 0.0010505803     1     5     8     3
 0.0016188903     1     5     8     6
 -0.0000654021     1     5     8     7
 -0.0016097193     1     5     8     8
 -0.0005983725     1     5     8     9
 0.0002628372     1     5     8    11
 0.0400008822     1     5     9     1
 0.0020508758     1     5     9     2
 -0.0001717675     1     5     9     3
 -0.0006312925     1     5     9     6
 0.0006464509     1     5     9     7
 -0.0000711963     1     5     9     8
 -0.0007774451     1     5     9     9
 0.0008845084     1     5     9    11
 0.0018470426     1     5    10     4
 -0.0025730998     1     5    10    10
 -0.0771873911     1     5    11     1
 -0.0050209555     1     5    11     2
 -0.0004139302     1     5    11     3
 0.0007822722     1     5    11     6
 -0.0018391467     1     5    11     7
 0.0000508919     1     5    11     8
 -0.0006512210     1     5    11     9
 -0.0011499521     1     5    11    11
 0.0678586453     1     6     2     1
 -0.0006087116     1     6     2     2
 -0.0006451355     1     6     2     3
 0.0007247219     1     6     2     5
 -0.0001183372     1     6     2     7
 -0.0001306733     1     6     2     8
 0.0002603731     1     6     2     9
 -0.0006372131     1     6     2    11
 -0.0530868154     1     6     3     1
 -0.0022924131     1     6     3     2
 -0.0032041966     1     6     3     3
 -0.0010353992     1     6     3     5
 -0.0012659904     1     6     3     7
 0.0003391222     1     6     3     8
 0.0004389439     1     6     3     9
 -0.0023033575     1     6     3    11
 -0.0054765010     1     6     4     4
 0.0026683743     1     6     4    10
 0.3258428901     1     6     5     1
 0.0186428632     1     6     5     2
 -0.0065331708     1     6     5     3
 -0.0016827344     1     6     5     5
 0.0024995011     1     6     5     7
 -0.0007873450     1     6     5     8
 0.0031663992     1     6     5     9
 -0.0002035491     1     6     5    11
 -0.5207253913     1     6     6     1
 -0.0155875946     1     6     6     2
 0.0037990265     1     6     6     3
 0.0051873644     1     6     6     5
 -0.0025497192     1     6     6     7
 0.0001607468     1     6     6     8
 -0.0027332328     1     6     6     9
 -0.0002065408     1     6     6    11
 -0.0195855553     1     6     7     1
 -0.0026569752     1     6     7     2
 -0.0007383540     1     6     7     3
 0.0004989407     1     6     7     5
 -0.0011229446     1     6     7     7
 -0.0001112575     1     6     7     8
 -0.0005310094     1     6     7     9
 -0.0007740178     1     6     7    11
 0.0818306829     1     6     8     1
 0.0028722541     1     6     8     2
 -0.0006021957     1     6     8     3
 -0.0016188903     1     6     8     5
 0.0003079618     1     6     8     7
 0.0011491636     1     6     8     8
 0.0006157988     1     6     8     9
 -0.0002463557     1     6     8    11
 -0.0113762456     1     6     9     1
 -0.0017482134     1     6     9     2
 0.0009273214     1     6     9     3
 0.0006312925     1     6     9     5
 -0.0004961103     1     6     9     7
 0.0001073885     1     6     9     8
 0.0006177998     1     6     9     9
 -0.0006727577     1     6     9    11
 0.0027181925     1     6    10     4
 0.0007401619     1     6    10    10
 0.0167015010     1     6    11     1
 0.0010936201     1     6    11     2
 -0.0033501043     1     6    11     3
 -0.0007822722     1     6    11     5
 -0.0003897913     1     6    11     7
 -0.0001868678     1     6    11     8
 -0.0001363247     1     6    11     9
 -0.0024092165     1     6    11    11
 -0.1178047284     1     7     2     1
 -0.0024377860     1     7     2     2
 -0.0004058720     1     7     2     3
 0.0003134452     1     7     2     5
 0.0001183372     1     7     2     6
 -0.0000340981     1     7     2     8
 0.0000291962     1     7     2     9
 0.0009836567     1     7     2    11
 -0.1222761796     1     7     3     1
 -0.0098930584     1     7     3     2
 0.0055626738     1     7     3     3
 0.0010383424     1     7     3     5
 0.0012659904     1     7     3     6
 -0.0001426159     1     7     3     8
 0.0001482196     1     7     3     9
 0.0031868747     1     7     3    11
 0.0060129671     1     7     4     4
 -0.0019906316     1     7     4    10
 0.0394763838     1     7     5     1
 0.0016460890     1     7     5     2
 -0.0002515566     1     7     5     3
 0.0033320900     1     7     5     5
 -0.0024995011     1     7     5     6
 0.0002525082     1     7     5     8
 -0.0003048694     1     7     5     9
 0.0008883566     1     7     5    11
 -0.0195855553     1     7     6     1
 -0.0025386380     1     7     6     2
 0.0005276364     1     7     6     3
 -0.0020005604     1     7     6     5
 0.0025497192     1     7     6     6
 -0.0004192193     1     7     6     8
 -0.0000348991     1     7     6     9
 -0.0003842265     1     7     6    11
 -0.3108312083     1     7     7     1
 -0.0026457577     1     7     7     2
 0.0041524434     1     7     7     3
 0.0000634760     1     7     7     5
 0.0011229446     1     7     7     6
 -0.0001974689     1     7     7     8
 -0.0000873968     1     7     7     9
 0.0017123423     1     7     7    11
 0.0149256419     1     7     8     1
 0.0003753633     1     7     8     2
 0.0000762261     1     7     8     3
 0.0000654021     1     7     8     5
 -0.0003079618     1     7     8     6
 0.0003776603     1     7     8     8
 -0.0001159733     1     7     8     9
 0.0002081078     1     7     8    11
 -0.0421495711     1     7     9     1
 -0.0005224262     1     7     9     2
 0.0010211843     1     7     9     3
 -0.0006464509     1     7     9     5
 0.0004961103     1     7     9     6
 -0.0002209687     1     7     9     8
 0.0001797520     1     7     9     9
 -0.0008636454     1     7     9    11
 -0.0029026178     1     7    10     4
 0.0015201635     1     7    10    10
 -0.1130062083     1     7    11     1
 -0.0047121845     1     7    11     2
 0.0062279640     1     7    11     3
 0.0018391467     1     7    11     5
 0.0003897913     1     7    11     6
 0.0000663856     1     7    11     8
 -0.0012451333     1     7    11     9
 0.0026514556     1     7    11    11
 -0.0084747079     1     8     2     1
 0.0000329270     1     8     2     2
 0.0000851813     1     8     2     3
 -0.0002846516     1     8     2     5
 0.0001306733     1     8     2     6
 0.0000340981     1     8     2     7
 -0.0000347607     1     8     2     9
 0.0001334843     1     8     2    11
 -0.0014389354     1     8     3     1
 -0.0000255585     1     8     3     2
 0.0007018641     1     8     3     3
 0.0006925054     1     8     3     5
 -0.0003391222     1     8     3     6
 0.0001426159     1     8     3     7
 -0.0001362183     1     8     3     9
 0.0005457995     1     8     3    11
 0.0011417077     1     8     4     4
 -0.0005402251     1     8     4    10
 -0.0410748705     1     8     5     1
 -0.0036015930     1     8     5     2
 0.0017430857     1     8     5     3
 -0.0004980051     1     8     5     5
 0.0007873450     1     8     5     6
 -0.0002525082     1     8     5     7
 -0.0005271762     1     8     5     9
 0.0002119453     1     8     5    11
 0.0818306829     1     8     6     1
 0.0030029274     1     8     6     2
 -0.0009413179     1     8     6     3
 -0.0008315453     1     8     6     5
 -0.0001607468     1     8     6     6
 0.0004192193     1     8     6     7
 0.0005084103     1     8     6     9
 -0.0000594879     1     8     6    11
 0.0149256419     1     8     7     1
 0.0004094614     1     8     7     2
 0.0002188420     1     8     7     3
 -0.0001871061     1     8     7     5
 0.0001112575     1     8     7     6
 0.0001974689     1     8     7     7
 0.0001049954     1     8     7     9
 0.0001417222     1     8     7    11
 -0.2193614998     1     8     8     1
 -0.0006868492     1     8     8     2
 -0.0004062841     1     8     8     3
 0.0016097193     1     8     8     5
 -0.0011491636     1     8     8     6
 -0.0003776603     1     8     8     7
 -0.0002907664     1     8     8     9
 -0.0000923419     1     8     8    11
 0.0073248337     1     8     9     1
 0.0004112270     1     8     9     2
 0.0003183265     1     8     9     3
 0.0000711963     1     8     9     5
 -0.0001073885     1     8     9     6
 0.0002209687     1     8     9     7
 -0.0001097830     1     8     9     9
 0.0004281236     1     8     9    11
 -0.0000068759     1     8    10     4
 -0.0003045762     1     8    10    10
 -0.0123160096     1     8    11     1
 -0.0005105434     1     8    11     2
 0.0004063838     1     8    11     3
 -0.0000508919     1     8    11     5
 0.0001868678     1     8    11     6
 -0.0000663856     1     8    11     7
 -0.0000292701     1     8    11     9
 0.0001939658     1     8    11    11
 -0.0702827859     1     9     2     1
 -0.0004977575     1     9     2     2
 -0.0000379869     1     9     2     3
 0.0004548997     1     9     2     5
 -0.0002603731     1     9     2     6
 -0.0000291962     1     9     2     7
 0.0000347607     1     9     2     8
 0.0001366134     1     9     2    11
 0.0148937476     1     9     3     1
 -0.0012761640     1     9     3     2
 0.0004750843     1     9     3     3
 0.0007268126     1     9     3     5
 -0.0004389439     1     9     3     6
 -0.0001482196     1     9     3     7
 0.0001362183     1     9     3     8
 0.0003808134     1     9     3    11
 0.0067990515     1     9     4     4
 -0.0023592016     1     9     4    10
 0.0400008822     1     9     5     1
 0.0025057755     1     9     5     2
 0.0005550451     1     9     5     3
 0.0037917404     1     9     5     5
 -0.0031663992     1     9     5     6
 0.0003048694     1     9     5     7
 0.0005271762     1     9     5     8
 0.0015357294     1     9     5    11
 -0.0113762456     1     9     6     1
 -0.0020085865     1     9     6     2
 0.0004883775     1     9     6     3
 -0.0025351067     1     9     6     5
 0.0027332328     1     9     6     6
 0.0000348991     1     9     6     7
 -0.0005084103     1     9     6     8
 -0.0005364330     1     9     6    11
 -0.0421495711     1     9     7     1
 -0.0005516224     1     9     7     2
 0.0008729647     1     9     7     3
 -0.0003415815     1     9     7     5
 0.0005310094     1     9     7     6
 0.0000873968     1     9     7     7
 -0.0001049954     1     9     7     8
 0.0003814879     1     9     7    11
 0.0073248337     1     9     8     1
 0.0004459877     1     9     8     2
 0.0004545448     1     9     8     3
 0.0005983725     1     9     8     5
 -0.0006157988     1     9     8     6
 0.0001159733     1     9     8     7
 0.0002907664     1     9     8     8
 0.0004573937     1     9     8    11
 -0.3336168040     1     9     9     1
 -0.0003979867     1     9     9     2
 0.0000968388     1     9     9     3
 0.0007774451     1     9     9     5
 -0.0006177998     1     9     9     6
 -0.0001797520     1     9     9     7
 0.0001097830     1     9     9     8
 -0.0001407726     1     9     9    11
 -0.0019211135     1     9    10     4
 0.0009332690     1     9    10    10
 -0.0287136471     1     9    11     1
 0.0002423934     1     9    11     2
 0.0044556978     1     9    11     3
 0.0006512210     1     9    11     5
 0.0001363247     1     9    11     6
 0.0012451333     1     9    11     7
 0.0000292701     1     9    11     8
 0.0028705686     1     9    11    11
 0.0025140927     1    10     2     4
 -0.0011809042     1    10     3     4
 0.2015043802     1    10     4     1
 0.0157317085     1    10     4     2
 -0.0048709522     1    10     4     3
 -0.0005453569     1    10     4     5
 -0.0026683743     1    10     4     6
 0.0019906316     1    10     4     7
 0.0005402251     1    10     4     8
 0.0023592016     1    10     4     9
 0.0002150832     1    10     4    11
 0.0013016857     1    10     5     4
 0.0000498182     1    10     6     4
 -0.0009119862     1    10     7     4
 0.0005333492     1    10     8     4
 0.0004380881     1    10     9     4
 -0.3475575817     1    10    10     1
 -0.0049614309     1    10    10     2
 0.0005034579     1    10    10     3
 0.0025730998     1    10    10     5
 -0.0007401619     1    10    10     6
 -0.0015201635     1    10    10     7
 0.0003045762     1    10    10     8
 -0.0009332690     1    10    10     9
 -0.0000910135     1    10    10    11
 0.0006542133     1    10    11     4
 -0.0459419087     1    11     2     1
 -0.0051580000     1    11     2     2
 -0.0041455284     1    11     2     3
 -0.0006497766     1    11     2     5
 0.0006372131     1    11     2     6
 -0.0009836567     1    11     2     7
 -0.0001334843     1    11     2     8
 -0.0001366134     1    11     2     9
 -0.2699954035     1    11     3     1
 -0.0232429083     1    11     3     2
 0.0022396881     1    11     3     3
 0.0016415929     1    11     3     5
 0.0023033575     1    11     3     6
 -0.0031868747     1    11     3     7
 -0.0005457995     1    11     3     8
 -0.0003808134     1    11     3     9
 0.0008449835     1    11     4     4
 -0.0002150832     1    11     4    10
 -0.0771873911     1    11     5     1
 -0.0056707321     1    11     5     2
 0.0012276627     1    11     5     3
 0.0012269306     1    11     5     5
 0.0002035491     1    11     5     6
 -0.0008883566     1    11     5     7
 -0.0002119453     1    11     5     8
 -0.0015357294     1    11     5     9
 0.0167015010     1    11     6     1
 0.0017308332     1    11     6     2
 -0.0010467468     1    11     6     3
 -0.0005787231     1    11     6     5
 0.0002065408     1    11     6     6
 0.0003842265     1    11     6     7
 0.0000594879     1    11     6     8
 0.0005364330     1    11     6     9
 -0.1130062083     1    11     7     1
 -0.0056958412     1    11     7     2
 0.0030410893     1    11     7     3
 0.0009507901     1    11     7     5
 0.0007740178     1    11     7     6
 -0.0017123423     1    11     7     7
 -0.0001417222     1    11     7     8
 -0.0003814879     1    11     7     9
 -0.0123160096     1    11     8     1
 -0.0006440277     1    11     8     2
 -0.0001394157     1    11     8     3
 -0.0002628372     1    11     8     5
 0.0002463557     1    11     8     6
 -0.0002081078     1    11     8     7
 0.0000923419     1    11     8     8
 -0.0004573937     1    11     8     9
 -0.0287136471     1    11     9     1
 0.0001057800     1    11     9     2
 0.0040748844     1    11     9     3
 -0.0008845084     1    11     9     5
 0.0006727577     1    11     9     6
 0.0008636454     1    11     9     7
 -0.0004281236     1    11     9     8
 0.0001407726     1    11     9     9
 0.0004391301     1    11    10     4
 0.0000910135     1    11    10    10
 -0.4972718319     1    11    11     1
 -0.0127900102     1    11    11     2
 0.0057831754     1    11    11     3
 0.0011499521     1    11    11     5
 0.0024092165     1    11    11     6
 -0.0026514556     1    11    11     7
 -0.0001939658     1    11    11     8
 -0.0028705686     1    11    11     9
 -1.0046607341     2     1     1     2
 0.0629011165     2     1     1     3
 0.0471069734     2     1     1     5
 0.0678586453     2     1     1     6
 -0.1178047284     2     1     1     7
 -0.0084747079     2     1     1     8
 -0.0702827859     2     1     1     9
 -0.0459419087     2     1     1    11
 0.0063837076     2     1     3     2
 0.0344461530     2     1     3     3
 0.0031041125     2     1     3     5
 0.0016472776     2     1     3     6
 0.0094871864     2     1     3     7
 0.0001107398     2     1     3     8
 0.0012381771     2     1     3     9
 0.0190973799     2     1     3    11
 0.0440833289     2     1     4     4
 -0.0132176158     2     1     4    10
 0.0002304077     2     1     5     2
 0.0036561602     2     1     5     3
 0.0229077953     2     1     5     5
 -0.0179181413     2     1     5     6
 -0.0013326438     2     1     5     7
 0.0033169414     2     1     5     8
 -0.0020508758     2     1     5     9
 0.0050209555     2     1     5    11
 0.0006087116     2     1     6     2
 0.0022924131     2     1     6     3
 -0.0186428632     2     1     6     5
 0.0155875946     2     1     6     6
 0.0026569752     2     1     6     7
 -0.0028722541     2     1     6     8
 0.0017482134     2     1     6     9
 -0.0010936201     2     1     6    11
 0.0024377860     2     1     7     2
 0.0098930584     2     1     7     3
 -0.0016460890     2     1     7     5
 0.0025386380     2     1     7     6
 0.0026457577     2     1     7     7
 -0.0003753633     2     1     7     8
 0.0005224262     2     1     7     9
 0.0047121845     2     1     7    11
 -0.0000329270     2     1     8     2
 0.0000255585     2     1     8     3
 0.0036015930     2     1     8     5
 -0.0030029274     2     1     8     6
 -0.0004094614     2     1     8     7
 0.0006868492     2     1     8     8
 -0.0004112270     2     1     8     9
 0.0005105434     2     1     8    11
 0.0004977575     2     1     9     2
 0.0012761640     2     1     9     3
 -0.0025057755     2     1     9     5
 0.0020085865     2     1     9     6
 0.0005516224     2     1     9     7
 -0.0004459877     2     1     9     8
 0.0003979867     2     1     9     9
 -0.0002423934     2     1     9    11
 -0.0157317085     2     1    10     4
 0.0049614309     2     1    10    10
 0.0051580000     2     1    11     2
 0.0232429083     2     1    11     3
 0.0056707321     2     1    11     5
 -0.0017308332     2     1    11     6
 0.0056958412     2     1    11     7
 0.0006440277     2     1    11     8
 -0.0001057800     2     1    11     9
 0.0127900102     2     1    11    11
 1.0046607341     2     2     1     1
 -0.0063837076     2     2     1     3
 -0.0002304077     2     2     1     5
 -0.0006087116     2     2     1     6
 -0.0024377860     2     2     1     7
 0.0000329270     2     2     1     8
 -0.0004977575     2     2     1     9
 -0.0051580000     2     2     1    11
 -0.0063837076     2     2     3     1
 0.5417984852     2     2     3     3
 0.0247818126     2     2     3     5
 0.0224579923     2     2     3     6
 0.0470700588     2     2     3     7
 0.0022994722     2     2     3     8
 -0.0167381441     2     2     3     9
 0.0894516240     2     2     3    11
 0.5896472998     2     2     4     4
 -0.0776000058     2     2     4    10
 -0.0002304077     2     2     5     1
 0.0247818126     2     2     5     3
 0.4474926106     2     2     5     5
 -0.1517802930     2     2     5     6
 -0.0178132687     2     2     5     7
 0.0110200124     2     2     5     8
 -0.0127802500     2     2     5     9
 0.0310546559     2     2     5    11
 -0.0006087116     2     2     6     1
 0.0224579923     2     2     6     3
 -0.1517802930     2     2     6     5
 0.3591320469     2     2     6     6
 0.0050703190     2     2     6     7
 -0.0523213417     2     2     6     8
 0.0034436607     2     2     6     9
 -0.0039381911     2     2     6    11
 -0.0024377860     2     2     7     1
 0.0470700588     2     2     7     3
 -0.0178132687     2     2     7     5
 0.0050703190     2     2     7     6
 0.2778371022     2     2     7     7
 -0.0116776520     2     2     7     8
 0.0246159403     2     2     7     9
 0.0691913885     2     2     7    11
 0.0000329270     2     2     8     1
 0.0022994722     2     2     8     3
 0.0110200124     2     2     8     5