&FCI NORB= 16,NELEC= 10,MS2=0,
 ORBSYM=1,1,1,1,1,1,1,1,1,1,1,1,1,1,1,1
 ISYM=1,
&END
 0.9878662840     1     1     2     2
 -0.0166196192     1     1     2     3
 0.0784538954     1     1     2     4
 -0.1448396167     1     1     2     6
 0.0497616168     1     1     2     7
 0.0638978097     1     1     2     8
 0.0802962181     1     1     2     9
 0.0293599756     1     1     2    10
 0.0459695396     1     1     2    12
 -0.0846717965     1     1     2    13
 0.1554106232     1     1     2    16
 -0.0166196192     1     1     3     2
 0.8401667473     1     1     3     3
 -0.0583341468     1     1     3     4
 0.0706454257     1     1     3     6
 0.1753312342     1     1     3     7
 -0.0922013177     1     1     3     8
 0.0265152108     1     1     3     9
 0.1295188519     1     1     3    10
 -0.1135958509     1     1     3    12
 -0.1945037812     1     1     3    13
 -0.0517708703     1     1     3    16
 0.0784538954     1     1     4     2
 -0.0583341468     1     1     4     3
 0.8920614254     1     1     4     4
 0.1494699229     1     1     4     6
 0.0417616679     1     1     4     7
 -0.1078536864     1     1     4     8
 0.0499835584     1     1     4     9
 -0.2405367265     1     1     4    10
 -0.0803538289     1     1     4    12
 -0.0516484614     1     1     4    13
 0.0412252837     1     1     4    16
 1.0002767891     1     1     5     5
 0.3030475456     1     1     5    11
 -0.1554882496     1     1     5    14
 -0.0273358397     1     1     5    15
 -0.1448396167     1     1     6     2
 0.0706454257     1     1     6     3
 0.1494699229     1     1     6     4
 0.3703601676     1     1     6     6
 0.0224838016     1     1     6     7
 -0.1289863233     1     1     6     8
 -0.0253516059     1     1     6     9
 -0.0757838180     1     1     6    10
 -0.0828777948     1     1     6    12
 -0.0144863684     1     1     6    13
 -0.0805461438     1     1     6    16
 0.0497616168     1     1     7     2
 0.1753312342     1     1     7     3
 0.0417616679     1     1     7     4
 0.0224838016     1     1     7     6
 0.3071964213     1     1     7     7
 -0.0751419503     1     1     7     8
 0.0471797446     1     1     7     9
 0.0515402451     1     1     7    10
 -0.0632659094     1     1     7    12
 -0.1342564893     1     1     7    13
 0.0079625637     1     1     7    16
 0.0638978097     1     1     8     2
 -0.0922013177     1     1     8     3
 -0.1078536864     1     1     8     4
 -0.1289863233     1     1     8     6
 -0.0751419503     1     1     8     7
 0.3902441347     1     1     8     8
 -0.0113757226     1     1     8     9
 0.0255488757     1     1     8    10
 0.0462077518     1     1     8    12
 0.0452989299     1     1     8    13
 0.0252242687     1     1     8    16
 0.0802962181     1     1     9     2
 0.0265152108     1     1     9     3
 0.0499835584     1     1     9     4
 -0.0253516059     1     1     9     6
 0.0471797446     1     1     9     7
 -0.0113757226     1     1     9     8
 0.3710556322     1     1     9     9
 0.0142277113     1     1     9    10
 -0.0167244909     1     1     9    12
 -0.0435448980     1     1     9    13
 0.0192386799     1     1     9    16
 0.0293599756     1     1    10     2
 0.1295188519     1     1    10     3
 -0.2405367265     1     1    10     4
 -0.0757838180     1     1    10     6
 0.0515402451     1     1    10     7
 0.0255488757     1     1    10     8
 0.0142277113     1     1    10     9
 0.4699562703     1     1    10    10
 0.0222808324     1     1    10    12
 -0.0410330513     1     1    10    13
 -0.0202663875     1     1    10    16
 0.3030475456     1     1    11     5
 0.4949142121     1     1    11    11
 -0.0847448496     1     1    11    14
 -0.0152589797     1     1    11    15
 0.0459695396     1     1    12     2
 -0.1135958509     1     1    12     3
 -0.0803538289     1     1    12     4
 -0.0828777948     1     1    12     6
 -0.0632659094     1     1    12     7
 0.0462077518     1     1    12     8
 -0.0167244909     1     1    12     9
 0.0222808324     1     1    12    10
 0.3928048940     1     1    12    12
 0.0460177334     1     1    12    13
 0.0384450000     1     1    12    16
 -0.0846717965     1     1    13     2
 -0.1945037812     1     1    13     3
 -0.0516484614     1     1    13     4
 -0.0144863684     1     1    13     6
 -0.1342564893     1     1    13     7
 0.0452989299     1     1    13     8
 -0.0435448980     1     1    13     9
 -0.0410330513     1     1    13    10
 0.0460177334     1     1    13    12
 0.4403274323     1     1    13    13
 -0.0038758414     1     1    13    16
 -0.1554882496     1     1    14     5
 -0.0847448496     1     1    14    11
 0.3934423253     1     1    14    14
 -0.0036818004     1     1    14    15
 -0.0273358397     1     1    15     5
 -0.0152589797     1     1    15    11
 -0.0036818004     1     1    15    14
 0.3498739975     1     1    15    15
 0.1554106232     1     1    16     2
 -0.0517708703     1     1    16     3
 0.0412252837     1     1    16     4
 -0.0805461438     1     1    16     6
 0.0079625637     1     1    16     7
 0.0252242687     1     1    16     8
 0.0192386799     1     1    16     9
 -0.0202663875     1     1    16    10
 0.0384450000     1     1    16    12
 -0.0038758414     1     1    16    13
 0.4137635956     1     1    16    16
 -0.9878662840     1     2     2     1
 -0.0037544155     1     2     2     3
 0.0039378549     1     2     2     4
 0.0012366011     1     2     2     6
 -0.0014681775     1     2     2     7
 -0.0003536854     1     2     2     8
 -0.0004618897     1     2     2     9
 -0.0039582173     1     2     2    10
 0.0000751017     1     2     2    12
 0.0023201212     1     2     2    13
 -0.0000298491     1     2     2    16
 0.0166196192     1     2     3     1
 -0.0296371220     1     2     3     3
 0.0037537098     1     2     3     4
 -0.0040043356     1     2     3     6
 -0.0123469376     1     2     3     7
 0.0076763328     1     2     3     8
 -0.0039736758     1     2     3     9
 -0.0112268988     1     2     3    10
 0.0090787083     1     2     3    12
 0.0170540491     1     2     3    13
 0.0039881184     1     2     3    16
 -0.0784538954     1     2     4     1
 0.0032979203     1     2     4     3
 -0.0328006781     1     2     4     4
 -0.0112961438     1     2     4     6
 -0.0020913286     1     2     4     7
 0.0093639909     1     2     4     8
 -0.0022289044     1     2     4     9
 0.0184601303     1     2     4    10
 0.0078334942     1     2     4    12
 0.0025170438     1     2     4    13
 -0.0007487309     1     2     4    16
 -0.0420323295     1     2     5     5
 -0.0239221345     1     2     5    11
 0.0128905941     1     2     5    14
 0.0016664811     1     2     5    15
 0.1448396167     1     2     6     1
 -0.0028450688     1     2     6     3
 -0.0109992699     1     2     6     4
 -0.0045678867     1     2     6     6
 -0.0025116140     1     2     6     7
 0.0044189122     1     2     6     8
 -0.0011681845     1     2     6     9
 0.0048575307     1     2     6    10
 0.0040015749     1     2     6    12
 0.0032446166     1     2     6    13
 0.0004937310     1     2     6    16
 -0.0497616168     1     2     7     1
 -0.0106972277     1     2     7     3
 -0.0015122304     1     2     7     4
 -0.0026291962     1     2     7     6
 -0.0045362279     1     2     7     7
 0.0036726757     1     2     7     8
 -0.0015202577     1     2     7     9
 -0.0023241891     1     2     7    10
 0.0039999887     1     2     7    12
 0.0064739182     1     2     7    13
 0.0014386441     1     2     7    16
 -0.0638978097     1     2     8     1
 0.0058463759     1     2     8     3
 0.0084198565     1     2     8     4
 0.0042140429     1     2     8     6
 0.0033861136     1     2     8     7
 -0.0045492495     1     2     8     8
 0.0015543157     1     2     8     9
 -0.0028537986     1     2     8    10
 -0.0042801643     1     2     8    12
 -0.0045590545     1     2     8    13
 -0.0009149892     1     2     8    16
 -0.0802962181     1     2     9     1
 -0.0032604154     1     2     9     3
 -0.0014127189     1     2     9     4
 -0.0009419382     1     2     9     6
 -0.0013878101     1     2     9     7
 0.0014137684     1     2     9     8
 -0.0005309544     1     2     9     9
 0.0000442666     1     2     9    10
 0.0011719256     1     2     9    12
 0.0017355707     1     2     9    13
 0.0002698624     1     2     9    16
 -0.0293599756     1     2    10     1
 -0.0090012476     1     2    10     3
 0.0157485761     1     2    10     4
 0.0038467344     1     2    10     6
 -0.0019623276     1     2    10     7
 -0.0023841209     1     2    10     8
 0.0003451530     1     2    10     9
 -0.0110859703     1     2    10    10
 -0.0009602012     1     2    10    12
 0.0027930101     1     2    10    13
 0.0015513209     1     2    10    16
 -0.0197280871     1     2    11     5
 -0.0113539696     1     2    11    11
 0.0059525271     1     2    11    14
 0.0010229319     1     2    11    15
 -0.0459695396     1     2    12     1
 0.0068354970     1     2    12     3
 0.0061543107     1     2    12     4
 0.0034873101     1     2    12     6
 0.0035214813     1     2    12     7
 -0.0039569659     1     2    12     8
 0.0011982987     1     2    12     9
 -0.0008751465     1     2    12    10
 -0.0039014806     1     2    12    12
 -0.0048677187     1     2    12    13
 -0.0008211464     1     2    12    16
 0.0846717965     1     2    13     1
 0.0134636800     1     2    13     3
 0.0015613789     1     2    13     4
 0.0031612828     1     2    13     6
 0.0058873886     1     2    13     7
 -0.0045407631     1     2    13     8
 0.0017096417     1     2    13     9
 0.0029972482     1     2    13    10
 -0.0050538260     1     2    13    12
 -0.0081556707     1     2    13    13
 -0.0018179067     1     2    13    16
 0.0102979495     1     2    14     5
 0.0057361692     1     2    14    11
 -0.0028882530     1     2    14    14
 -0.0007194898     1     2    14    15
 0.0017457778     1     2    15     5
 0.0012732749     1     2    15    11
 -0.0008705987     1     2    15    14
 -0.0000676662     1     2    15    15
 -0.1554106232     1     2    16     1
 0.0021785210     1     2    16     3
 0.0000819085     1     2    16     4
 0.0006218790     1     2    16     6
 0.0009399511     1     2    16     7
 -0.0008777027     1     2    16     8
 0.0001881747     1     2    16     9
 0.0007025347     1     2    16    10
 -0.0007161805     1     2    16    12
 -0.0012407068     1     2    16    13
 -0.0004789631     1     2    16    16
 0.0166196192     1     3     2     1
 0.0037544155     1     3     2     2
 0.0004557895     1     3     2     4
 -0.0011592668     1     3     2     6
 -0.0016497099     1     3     2     7
 0.0018299569     1     3     2     8
 -0.0007132604     1     3     2     9
 -0.0022256512     1     3     2    10
 0.0022432113     1     3     2    12
 0.0035903691     1     3     2    13
 0.0018095974     1     3     2    16
 -0.8401667473     1     3     3     1
 0.0296371220     1     3     3     2
 0.0070431460     1     3     3     4
 -0.0036787695     1     3     3     6
 0.0023728897     1     3     3     7
 0.0005340360     1     3     3     8
 0.0004707068     1     3     3     9
 -0.0016806443     1     3     3    10
 0.0017561640     1     3     3    12
 -0.0046894296     1     3     3    13
 0.0077367796     1     3     3    16
 0.0583341468     1     3     4     1
 -0.0032979203     1     3     4     2
 0.0037205366     1     3     4     4
 0.0032838827     1     3     4     6
 0.0013990749     1     3     4     7
 -0.0046914015     1     3     4     8
 0.0012483007     1     3     4     9
 -0.0013992245     1     3     4    10
 -0.0002764801     1     3     4    12
 -0.0013512736     1     3     4    13
 -0.0011572032     1     3     4    16
 0.0058961782     1     3     5     5
 0.0041800876     1     3     5    11
 0.0010315385     1     3     5    14
 -0.0018093529     1     3     5    15
 -0.0706454257     1     3     6     1
 0.0028450688     1     3     6     2
 0.0022854389     1     3     6     4
 -0.0005888571     1     3     6     6
 -0.0010579684     1     3     6     7
 -0.0002650104     1     3     6     8
 0.0007936402     1     3     6     9
 -0.0010466861     1     3     6    10
 0.0009501538     1     3     6    12
 0.0004583272     1     3     6    13
 0.0011601244     1     3     6    16
 -0.1753312342     1     3     7     1
 0.0106972277     1     3     7     2
 0.0030192231     1     3     7     4
 -0.0033905801     1     3     7     6
 0.0022689104     1     3     7     7
 0.0008897200     1     3     7     8
 0.0016862684     1     3     7     9
 0.0007306228     1     3     7    10
 0.0002497234     1     3     7    12
 -0.0025372448     1     3     7    13
 0.0032576831     1     3     7    16
 0.0922013177     1     3     8     1
 -0.0058463759     1     3     8     2
 -0.0026451677     1     3     8     4
 0.0015733819     1     3     8     6
 -0.0000986150     1     3     8     7
 -0.0020789827     1     3     8     8
 -0.0003662934     1     3     8     9
 -0.0008135736     1     3     8    10
 -0.0017590264     1     3     8    12
 0.0004858286     1     3     8    13
 -0.0027457748     1     3     8    16
 -0.0265152108     1     3     9     1
 0.0032604154     1     3     9     2
 0.0006873288     1     3     9     4
 -0.0002780362     1     3     9     6
 0.0017423377     1     3     9     7
 0.0001236469     1     3     9     8
 0.0008900650     1     3     9     9
 0.0031588314     1     3     9    10
 -0.0009557537     1     3     9    12
 -0.0040940728     1     3     9    13
 -0.0004572984     1     3     9    16
 -0.1295188519     1     3    10     1
 0.0090012476     1     3    10     2
 0.0001686061     1     3    10     4
 -0.0033917000     1     3    10     6
 0.0013683454     1     3    10     7
 0.0013393894     1     3    10     8
 0.0026644381     1     3    10     9
 0.0026106307     1     3    10    10
 0.0018304692     1     3    10    12
 -0.0021392544     1     3    10    13
 0.0030581916     1     3    10    16
 0.0024437432     1     3    11     5
 -0.0000404696     1     3    11    11
 -0.0012919595     1     3    11    14
 -0.0005208021     1     3    11    15
 0.1135958509     1     3    12     1
 -0.0068354970     1     3    12     2
 -0.0025264426     1     3    12     4
 0.0013762060     1     3    12     6
 -0.0016889493     1     3    12     7
 -0.0003837287     1     3    12     8
 -0.0017942032     1     3    12     9
 0.0015864420     1     3    12    10
 0.0005213718     1     3    12    12
 0.0024562908     1     3    12    13
 -0.0012132123     1     3    12    16
 0.1945037812     1     3    13     1
 -0.0134636800     1     3    13     2
 -0.0039219644     1     3    13     4
 0.0038572665     1     3    13     6
 -0.0019526638     1     3    13     7
 -0.0012470536     1     3    13     8
 -0.0038267970     1     3    13     9
 -0.0006388547     1     3    13    10
 -0.0006358370     1     3    13    12
 0.0037740980     1     3    13    13
 -0.0055604448     1     3    13    16
 -0.0018889397     1     3    14     5
 -0.0034713751     1     3    14    11
 0.0023203593     1     3    14    14
 -0.0018101427     1     3    14    15
 -0.0001386180     1     3    15     5
 0.0003473373     1     3    15    11
 -0.0024546462     1     3    15    14
 0.0007071210     1     3    15    15
 0.0517708703     1     3    16     1
 -0.0021785210     1     3    16     2
 -0.0009473105     1     3    16     4
 0.0006925603     1     3    16     6
 -0.0003164465     1     3    16     7
 -0.0008517963     1     3    16     8
 -0.0015798350     1     3    16     9
 0.0001819487     1     3    16    10
 0.0009113838     1     3    16    12
 -0.0003837701     1     3    16    13
 -0.0004561026     1     3    16    16
 -0.0784538954     1     4     2     1
 -0.0039378549     1     4     2     2
 -0.0004557895     1     4     2     3
 -0.0002968739     1     4     2     6
 -0.0005790982     1     4     2     7
 0.0009441344     1     4     2     8
 -0.0008161855     1     4     2     9
 0.0027115542     1     4     2    10
 0.0016791835     1     4     2    12
 0.0009556649     1     4     2    13
 -0.0008306394     1     4     2    16
 0.0583341468     1     4     3     1
 -0.0037537098     1     4     3     2
 -0.0070431460     1     4     3     3
 0.0009984438     1     4     3     6
 -0.0016201482     1     4     3     7
 -0.0020462338     1     4     3     8
 0.0005609719     1     4     3     9
 -0.0015678306     1     4     3    10
 0.0022499625     1     4     3    12
 0.0025706908     1     4     3    13
 -0.0002098927     1     4     3    16
 -0.8920614254     1     4     4     1
 0.0328006781     1     4     4     2
 -0.0037205366     1     4     4     3
 -0.0081778736     1     4     4     6
 0.0016569455     1     4     4     7
 0.0041615903     1     4     4     8
 0.0053311239     1     4     4     9
 0.0043196062     1     4     4    10
 0.0013336604     1     4     4    12
 -0.0015720510     1     4     4    13
 0.0086376806     1     4     4    16
 -0.0107104237     1     4     5     5
 -0.0050491134     1     4     5    11
 0.0036166743     1     4     5    14
 0.0034262691     1     4     5    15
 -0.1494699229     1     4     6     1
 0.0109992699     1     4     6     2
 -0.0022854389     1     4     6     3
 -0.0050770076     1     4     6     6
 -0.0003987209     1     4     6     7
 0.0028769181     1     4     6     8
 0.0013061584     1     4     6     9
 0.0027192014     1     4     6    10
 0.0022619482     1     4     6    12
 0.0002875475     1     4     6    13
 0.0033245294     1     4     6    16
 -0.0417616679     1     4     7     1
 0.0015122304     1     4     7     2
 -0.0030192231     1     4     7     3
 -0.0012442119     1     4     7     6
 -0.0018756896     1     4     7     7
 0.0012281661     1     4     7     8
 0.0000819647     1     4     7     9
 -0.0011719119     1     4     7    10
 0.0012382579     1     4     7    12
 0.0016338505     1     4     7    13
 0.0004664226     1     4     7    16
 0.1078536864     1     4     8     1
 -0.0084198565     1     4     8     2
 0.0026451677     1     4     8     3
 0.0040389827     1     4     8     6
 0.0014511668     1     4     8     7
 -0.0046226822     1     4     8     8
 -0.0017279974     1     4     8     9
 -0.0006167943     1     4     8    10
 -0.0032010323     1     4     8    12
 -0.0019137560     1     4     8    13
 -0.0025702931     1     4     8    16
 -0.0499835584     1     4     9     1
 0.0014127189     1     4     9     2
 -0.0006873288     1     4     9     3
 -0.0012414726     1     4     9     6
 -0.0006371955     1     4     9     7
 0.0001597157     1     4     9     8
 -0.0010223588     1     4     9     9
 -0.0003157924     1     4     9    10
 0.0023348363     1     4     9    12
 0.0011154841     1     4     9    13
 -0.0000345141     1     4     9    16
 0.2405367265     1     4    10     1
 -0.0157485761     1     4    10     2
 -0.0001686061     1     4    10     3
 0.0060314647     1     4    10     6
 -0.0024783586     1     4    10     7
 -0.0023708073     1     4    10     8
 -0.0033166274     1     4    10     9
 -0.0018636352     1     4    10    10
 -0.0018465802     1     4    10    12
 0.0047360120     1     4    10    13
 -0.0061517323     1     4    10    16
 -0.0055137504     1     4    11     5
 -0.0045899710     1     4    11    11
 0.0009377397     1     4    11    14
 -0.0006181460     1     4    11    15
 0.0803538289     1     4    12     1
 -0.0061543107     1     4    12     2
 0.0025264426     1     4    12     3
 0.0032649525     1     4    12     6
 -0.0000010920     1     4    12     7
 -0.0025440068     1     4    12     8
 0.0003575678     1     4    12     9
 -0.0027090276     1     4    12    10
 -0.0023164934     1     4    12    12
 0.0008384347     1     4    12    13
 -0.0023915979     1     4    12    16
 0.0516484614     1     4    13     1
 -0.0015613789     1     4    13     2
 0.0039219644     1     4    13     3
 0.0010087076     1     4    13     6
 0.0013481579     1     4    13     7
 -0.0011706405     1     4    13     8
 0.0000473216     1     4    13     9
 0.0031823684     1     4    13    10
 -0.0005049470     1     4    13    12
 -0.0016938156     1     4    13    13
 -0.0020048601     1     4    13    16
 0.0025101980     1     4    14     5
 0.0001721018     1     4    14    11
 -0.0021933839     1     4    14    14
 0.0000816256     1     4    14    15
 0.0001011312     1     4    15     5
 -0.0025326532     1     4    15    11
 0.0010273514     1     4    15    14
 -0.0005514650     1     4    15    15
 -0.0412252837     1     4    16     1
 -0.0000819085     1     4    16     2
 0.0009473105     1     4    16     3
 0.0000405630     1     4    16     6
 -0.0000637612     1     4    16     7
 0.0003431889     1     4    16     8
 -0.0006502286     1     4    16     9
 -0.0011416660     1     4    16    10
 -0.0004636627     1     4    16    12
 -0.0014366049     1     4    16    13
 -0.0007267281     1     4    16    16
 -0.0041940474     1     5     2    11
 0.0025926446     1     5     2    14
 -0.0000792967     1     5     2    15
 0.0017363444     1     5     3    11
 0.0029204782     1     5     3    14
 -0.0016707349     1     5     3    15
 0.0004646370     1     5     4    11
 0.0011064763     1     5     4    14
 0.0033251379     1     5     4    15
 -1.0002767891     1     5     5     1
 0.0420323295     1     5     5     2
 -0.0058961782     1     5     5     3
 0.0107104237     1     5     5     4
 -0.0089976881     1     5     5     6
 0.0020055878     1     5     5     7
 0.0059911400     1     5     5     8
 0.0080179755     1     5     5     9
 -0.0008644255     1     5     5    10
 0.0044745235     1     5     5    12
 -0.0062334806     1     5     5    13
 0.0091045111     1     5     5    16
 -0.0011982154     1     5     6    11
 0.0007773173     1     5     6    14
 0.0004182880     1     5     6    15
 0.0006225070     1     5     7    11
 -0.0006076060     1     5     7    14
 -0.0001179634     1     5     7    15
 -0.0012689335     1     5     8    11
 0.0002222555     1     5     8    14
 0.0004582737     1     5     8    15
 -0.0011638350     1     5     9    11
 0.0009071994     1     5     9    14
 0.0004023186     1     5     9    15
 0.0000431564     1     5    10    11
 0.0001075689     1     5    10    14
 0.0002538593     1     5    10    15
 -0.3030475456     1     5    11     1
 0.0197280871     1     5    11     2
 -0.0024437432     1     5    11     3
 0.0055137504     1     5    11     4
 -0.0069239746     1     5    11     6
 0.0013221442     1     5    11     7
 0.0027520731     1     5    11     8
 0.0032545219     1     5    11     9
 -0.0001118961     1     5    11    10
 0.0026295113     1     5    11    12
 -0.0022992301     1     5    11    13
 0.0087739454     1     5    11    16
 -0.0005048600     1     5    12    11
 0.0002360139     1     5    12    14
 -0.0003485553     1     5    12    15
 0.0006601374     1     5    13    11
 -0.0003210080     1     5    13    14
 0.0000369019     1     5    13    15
 0.1554882496     1     5    14     1
 -0.0102979495     1     5    14     2
 0.0018889397     1     5    14     3
 -0.0025101980     1     5    14     4
 0.0029386441     1     5    14     6
 -0.0024701530     1     5    14     7
 -0.0006980062     1     5    14     8
 -0.0019314977     1     5    14     9
 -0.0003092835     1     5    14    10
 -0.0001029984     1     5    14    12
 0.0033126421     1     5    14    13
 -0.0047426980     1     5    14    16
 0.0273358397     1     5    15     1
 -0.0017457778     1     5    15     2
 0.0001386180     1     5    15     3
 -0.0001011312     1     5    15     4
 -0.0000177777     1     5    15     6
 0.0001427569     1     5    15     7
 0.0006966878     1     5    15     8
 -0.0000007295     1     5    15     9
 0.0023535709     1     5    15    10
 -0.0002911695     1     5    15    12
 -0.0001812741     1     5    15    13
 -0.0017396222     1     5    15    16
 0.0033885003     1     5    16    11
 -0.0022413756     1     5    16    14
 -0.0011807972     1     5    16    15
 0.1448396167     1     6     2     1
 -0.0012366011     1     6     2     2
 0.0011592668     1     6     2     3
 0.0002968739     1     6     2     4
 0.0001175822     1     6     2     7
 0.0002048693     1     6     2     8
 -0.0002262463     1     6     2     9
 0.0010107963     1     6     2    10
 0.0005142648     1     6     2    12
 0.0000833338     1     6     2    13
 -0.0001281480     1     6     2    16
 -0.0706454257     1     6     3     1
 0.0040043356     1     6     3     2
 0.0036787695     1     6     3     3
 -0.0009984438     1     6     3     4
 0.0023326117     1     6     3     7
 -0.0018383923     1     6     3     8
 0.0010716764     1     6     3     9
 0.0023450139     1     6     3    10
 -0.0004260522     1     6     3    12
 -0.0033989393     1     6     3    13
 0.0004675641     1     6     3    16
 -0.1494699229     1     6     4     1
 0.0112961438     1     6     4     2
 -0.0032838827     1     6     4     3
 0.0081778736     1     6     4     4
 0.0008454910     1     6     4     7
 -0.0011620646     1     6     4     8
 0.0025476310     1     6     4     9
 -0.0033122633     1     6     4    10
 -0.0010030043     1     6     4    12
 -0.0007211601     1     6     4    13
 0.0032839664     1     6     4    16
 0.0089976881     1     6     5     5
 0.0057257592     1     6     5    11
 -0.0021613268     1     6     5    14
 0.0004360657     1     6     5    15
 -0.3703601676     1     6     6     1
 0.0045678867     1     6     6     2
 0.0005888571     1     6     6     3
 0.0050770076     1     6     6     4
 0.0008027254     1     6     6     7
 -0.0009007434     1     6     6     8
 0.0011605877     1     6     6     9
 -0.0012075643     1     6     6    10
 -0.0007304020     1     6     6    12
 -0.0013034783     1     6     6    13
 0.0012303559     1     6     6    16
 -0.0224838016     1     6     7     1
 0.0026291962     1     6     7     2
 0.0033905801     1     6     7     3
 0.0012442119     1     6     7     4
 0.0016634487     1     6     7     7
 -0.0009067421     1     6     7     8
 0.0009780053     1     6     7     9
 0.0006736093     1     6     7    10
 -0.0011676952     1     6     7    12
 -0.0025827929     1     6     7    13
 0.0002069499     1     6     7    16
 0.1289863233     1     6     8     1
 -0.0042140429     1     6     8     2
 -0.0015733819     1     6     8     3
 -0.0040389827     1     6     8     4
 -0.0009466074     1     6     8     7
 -0.0001707459     1     6     8     8
 -0.0013390813     1     6     8     9
 0.0007915417     1     6     8    10
 0.0003326294     1     6     8    12
 0.0013708082     1     6     8    13
 -0.0010824614     1     6     8    16
 0.0253516059     1     6     9     1
 0.0009419382     1     6     9     2
 0.0002780362     1     6     9     3
 0.0012414726     1     6     9     4
 0.0003739579     1     6     9     7
 -0.0004499211     1     6     9     8
 -0.0001108553     1     6     9     9
 -0.0000696726     1     6     9    10
 0.0002712552     1     6     9    12
 -0.0006806174     1     6     9    13
 -0.0001380319     1     6     9    16
 0.0757838180     1     6    10     1
 -0.0038467344     1     6    10     2
 0.0033917000     1     6    10     3
 -0.0060314647     1     6    10     4
 0.0001294613     1     6    10     7
 0.0003427150     1     6    10     8
 -0.0008083995     1     6    10     9
 0.0040616983     1     6    10    10
 0.0000741511     1     6    10    12
 0.0001996488     1     6    10    13
 -0.0021866823     1     6    10    16
 0.0069239746     1     6    11     5
 0.0031515845     1     6    11    11
 -0.0024351886     1     6    11    14
 -0.0007390892     1     6    11    15
 0.0828777948     1     6    12     1
 -0.0034873101     1     6    12     2
 -0.0013762060     1     6    12     3
 -0.0032649525     1     6    12     4
 -0.0015712129     1     6    12     7
 0.0005820830     1     6    12     8
 -0.0006726433     1     6    12     9
 0.0000104841     1     6    12    10
 0.0007262632     1     6    12    12
 0.0024957532     1     6    12    13
 -0.0008254012     1     6    12    16
 0.0144863684     1     6    13     1
 -0.0031612828     1     6    13     2
 -0.0038572665     1     6    13     3
 -0.0010087076     1     6    13     4
 -0.0021437140     1     6    13     7
 0.0009977690     1     6    13     8
 -0.0013543481     1     6    13     9
 -0.0003577075     1     6    13    10
 0.0015707326     1     6    13    12
 0.0032151547     1     6    13    13
 -0.0010714614     1     6    13    16
 -0.0029386441     1     6    14     5
 -0.0025284733     1     6    14    11
 0.0005934371     1     6    14    14
 -0.0000610963     1     6    14    15
 0.0000177777     1     6    15     5
 -0.0009269048     1     6    15    11
 0.0000286498     1     6    15    14
 -0.0001095256     1     6    15    15
 0.0805461438     1     6    16     1
 -0.0006218790     1     6    16     2
 -0.0006925603     1     6    16     3
 -0.0000405630     1     6    16     4
 -0.0005234598     1     6    16     7
 0.0002695330     1     6    16     8
 -0.0006359193     1     6    16     9
 -0.0008076660     1     6    16    10
 0.0002837343     1     6    16    12
 0.0000152626     1     6    16    13
 -0.0002202936     1     6    16    16
 -0.0497616168     1     7     2     1
 0.0014681775     1     7     2     2
 0.0016497099     1     7     2     3
 0.0005790982     1     7     2     4
 -0.0001175822     1     7     2     6
 0.0002865621     1     7     2     8
 -0.0001324476     1     7     2     9
 -0.0003618615     1     7     2    10
 0.0004785074     1     7     2    12
 0.0005865296     1     7     2    13
 0.0004986930     1     7     2    16