&FCI NORB=  9,NELEC=  6,MS2=0,
 ORBSYM=1,1,1,1,1,1,1,1,1
 ISYM=1,
&END
 0.1369988853     1     1     2     2
 0.0151346438     1     1     2     4
 0.0103219843     1     1     2     6
 -0.0008467781     1     1     2     8
 0.1750057912     1     1     3     3
 0.0326264774     1     1     3     5
 -0.0009381561     1     1     3     7
 -0.0021292185     1     1     3     9
 0.0151346438     1     1     4     2
 0.1927316056     1     1     4     4
 -0.0392441250     1     1     4     6
 -0.0029602586     1     1     4     8
 0.0326264774     1     1     5     3
 0.1888612338     1     1     5     5
 -0.0108000803     1     1     5     7
 0.0210825446     1     1     5     9
 0.0103219843     1     1     6     2
 -0.0392441250     1     1     6     4
 0.2161372419     1     1     6     6
 0.0316251749     1     1     6     8
 -0.0009381561     1     1     7     3
 -0.0108000803     1     1     7     5
 0.1876148897     1     1     7     7
 0.0341972337     1     1     7     9
 -0.0008467781     1     1     8     2
 -0.0029602586     1     1     8     4
 0.0316251749     1     1     8     6
 0.1651587031     1     1     8     8
 -0.0021292185     1     1     9     3
 0.0210825446     1     1     9     5
 0.0341972337     1     1     9     7
 0.1692786832     1     1     9     9
 -0.1369988853     1     2     2     1
 -0.0486964864     1     2     2     3
 -0.0014289826     1     2     2     5
 0.0038781572     1     2     2     7
 0.0048211878     1     2     2     9
 0.0439145983     1     2     3     4
 -0.0215413398     1     2     3     6
 -0.0031091452     1     2     3     8
 -0.0151346438     1     2     4     1
 0.0122846379     1     2     4     3
 -0.0512256002     1     2     4     5
 0.0067072940     1     2     4     7
 -0.0120085906     1     2     4     9
 -0.0365844563     1     2     5     4
 -0.0567396524     1     2     5     6
 -0.0171888855     1     2     5     8
 -0.0103219843     1     2     6     1
 -0.0161603895     1     2     6     3
 -0.0459458569     1     2     6     5
 -0.0062070184     1     2     6     7
 0.0084027283     1     2     6     9
 0.0049276317     1     2     7     4
 -0.0057736733     1     2     7     6
 0.0506313206     1     2     7     8
 0.0008467781     1     2     8     1
 0.0003237101     1     2     8     3
 -0.0147881325     1     2     8     5
 0.0498844964     1     2     8     7
 -0.0312148440     1     2     8     9
 -0.0123905587     1     2     9     4
 0.0048829739     1     2     9     6
 -0.0314288379     1     2     9     8
 0.0486964864     1     3     2     2
 0.0316839639     1     3     2     4
 -0.0054425558     1     3     2     6
 -0.0033206500     1     3     2     8
 -0.1750057912     1     3     3     1
 0.0312486028     1     3     3     5
 0.0043903749     1     3     3     7
 0.0097634996     1     3     3     9
 -0.0122846379     1     3     4     2
 0.0108689830     1     3     4     4
 -0.0367188564     1     3     4     6
 -0.0103297899     1     3     4     8
 -0.0326264774     1     3     5     1
 0.0010757380     1     3     5     5
 -0.0001332321     1     3     5     7
 0.0064254623     1     3     5     9
 0.0161603895     1     3     6     2
 -0.0159224773     1     3     6     4
 0.0217398462     1     3     6     6
 0.0124959507     1     3     6     8
 0.0009381561     1     3     7     1
 -0.0015832513     1     3     7     5
 0.0162330035     1     3     7     7
 0.0290414111     1     3     7     9
 -0.0003237101     1     3     8     2
 -0.0085914968     1     3     8     4
 0.0121737135     1     3     8     6
 -0.0068963730     1     3     8     8
 0.0021292185     1     3     9     1
 -0.0004349059     1     3     9     5
 0.0286209577     1     3     9     7
 0.0037524801     1     3     9     9
 -0.0151346438     1     4     2     1
 -0.0316839639     1     4     2     3
 -0.0152312742     1     4     2     5
 0.0016789245     1     4     2     7
 0.0001000833     1     4     2     9
 -0.0439145983     1     4     3     2
 -0.0227478519     1     4     3     6
 -0.0020093207     1     4     3     8
 -0.1927316056     1     4     4     1
 -0.0108689830     1     4     4     3
 -0.0015541176     1     4     4     5
 0.0142029355     1     4     4     7
 -0.0003875141     1     4     4     9
 0.0365844563     1     4     5     2
 -0.0109759352     1     4     5     6
 -0.0122987510     1     4     5     8
 0.0392441250     1     4     6     1
 0.0159224773     1     4     6     3
 -0.0097181569     1     4     6     5
 -0.0021208182     1     4     6     7
 -0.0090900599     1     4     6     9
 -0.0049276317     1     4     7     2
 0.0009685933     1     4     7     6
 0.0094766640     1     4     7     8
 0.0029602586     1     4     8     1
 0.0085914968     1     4     8     3
 -0.0024681384     1     4     8     5
 0.0085115160     1     4     8     7
 0.0058986714     1     4     8     9
 0.0123905587     1     4     9     2
 -0.0014569195     1     4     9     6
 0.0055483885     1     4     9     8
 0.0014289826     1     5     2     2
 0.0152312742     1     5     2     4
 -0.0121603063     1     5     2     6
 -0.0029351251     1     5     2     8
 -0.0326264774     1     5     3     1
 -0.0312486028     1     5     3     3
 0.0013571802     1     5     3     7
 0.0071439364     1     5     3     9
 0.0512256002     1     5     4     2
 0.0015541176     1     5     4     4
 -0.0011694344     1     5     4     6
 -0.0099930948     1     5     4     8
 -0.1888612338     1     5     5     1
 -0.0010757380     1     5     5     3
 0.0139670865     1     5     5     7
 -0.0015768871     1     5     5     9
 0.0459458569     1     5     6     2
 0.0097181569     1     5     6     4
 -0.0057713843     1     5     6     6
 -0.0087090360     1     5     6     8
 0.0108000803     1     5     7     1
 0.0015832513     1     5     7     3
 -0.0054219313     1     5     7     7
 -0.0026768792     1     5     7     9
 0.0147881325     1     5     8     2
 0.0024681384     1     5     8     4
 -0.0007804262     1     5     8     6
 -0.0052245267     1     5     8     8
 -0.0210825446     1     5     9     1
 0.0004349059     1     5     9     3
 0.0009249053     1     5     9     7
 0.0010239103     1     5     9     9
 -0.0103219843     1     6     2     1
 0.0054425558     1     6     2     3
 0.0121603063     1     6     2     5
 -0.0006177354     1     6     2     7
 0.0041240565     1     6     2     9
 0.0215413398     1     6     3     2
 0.0227478519     1     6     3     4
 0.0004129050     1     6     3     8
 0.0392441250     1     6     4     1
 0.0367188564     1     6     4     3
 0.0011694344     1     6     4     5
 -0.0029525576     1     6     4     7
 -0.0078379129     1     6     4     9
 0.0567396524     1     6     5     2
 0.0109759352     1     6     5     4
 -0.0080765566     1     6     5     8
 -0.2161372419     1     6     6     1
 -0.0217398462     1     6     6     3
 0.0057713843     1     6     6     5
 0.0154625882     1     6     6     7
 0.0055204211     1     6     6     9
 0.0057736733     1     6     7     2
 -0.0009685933     1     6     7     4
 -0.0022103951     1     6     7     8
 -0.0316251749     1     6     8     1
 -0.0121737135     1     6     8     3
 0.0007804262     1     6     8     5
 0.0023748658     1     6     8     7
 0.0012123765     1     6     8     9
 -0.0048829739     1     6     9     2
 0.0014569195     1     6     9     4
 -0.0011124853     1     6     9     8
 -0.0038781572     1     7     2     2
 -0.0016789245     1     7     2     4
 0.0006177354     1     7     2     6
 0.0008237770     1     7     2     8
 0.0009381561     1     7     3     1
 -0.0043903749     1     7     3     3
 -0.0013571802     1     7     3     5
 0.0004006464     1     7     3     9
 -0.0067072940     1     7     4     2
 -0.0142029355     1     7     4     4
 0.0029525576     1     7     4     6
 0.0009477243     1     7     4     8
 0.0108000803     1     7     5     1
 0.0001332321     1     7     5     3
 -0.0139670865     1     7     5     5
 -0.0035676395     1     7     5     9
 0.0062070184     1     7     6     2
 0.0021208182     1     7     6     4
 -0.0154625882     1     7     6     6
 -0.0045702142     1     7     6     8
 -0.1876148897     1     7     7     1
 -0.0162330035     1     7     7     3
 0.0054219313     1     7     7     5
 0.0020306824     1     7     7     9
 -0.0498844964     1     7     8     2
 -0.0085115160     1     7     8     4
 -0.0023748658     1     7     8     6
 -0.0029122591     1     7     8     8
 -0.0341972337     1     7     9     1
 -0.0286209577     1     7     9     3
 -0.0009249053     1     7     9     5
 -0.0036320287     1     7     9     9
 0.0008467781     1     8     2     1
 0.0033206500     1     8     2     3
 0.0029351251     1     8     2     5
 -0.0008237770     1     8     2     7
 0.0003508836     1     8     2     9
 0.0031091452     1     8     3     2
 0.0020093207     1     8     3     4
 -0.0004129050     1     8     3     6
 0.0029602586     1     8     4     1
 0.0103297899     1     8     4     3
 0.0099930948     1     8     4     5
 -0.0009477243     1     8     4     7
 0.0002678110     1     8     4     9
 0.0171888855     1     8     5     2
 0.0122987510     1     8     5     4
 0.0080765566     1     8     5     6
 -0.0316251749     1     8     6     1
 -0.0124959507     1     8     6     3
 0.0087090360     1     8     6     5
 0.0045702142     1     8     6     7
 0.0023165389     1     8     6     9
 -0.0506313206     1     8     7     2
 -0.0094766640     1     8     7     4
 0.0022103951     1     8     7     6
 -0.1651587031     1     8     8     1
 0.0068963730     1     8     8     3
 0.0052245267     1     8     8     5
 0.0029122591     1     8     8     7
 0.0036837946     1     8     8     9
 0.0314288379     1     8     9     2
 -0.0055483885     1     8     9     4
 0.0011124853     1     8     9     6
 -0.0048211878     1     9     2     2
 -0.0001000833     1     9     2     4
 -0.0041240565     1     9     2     6
 -0.0003508836     1     9     2     8
 0.0021292185     1     9     3     1
 -0.0097634996     1     9     3     3
 -0.0071439364     1     9     3     5
 -0.0004006464     1     9     3     7
 0.0120085906     1     9     4     2
 0.0003875141     1     9     4     4
 0.0078379129     1     9     4     6
 -0.0002678110     1     9     4     8
 -0.0210825446     1     9     5     1
 -0.0064254623     1     9     5     3
 0.0015768871     1     9     5     5
 0.0035676395     1     9     5     7
 -0.0084027283     1     9     6     2
 0.0090900599     1     9     6     4
 -0.0055204211     1     9     6     6
 -0.0023165389     1     9     6     8
 -0.0341972337     1     9     7     1
 -0.0290414111     1     9     7     3
 0.0026768792     1     9     7     5
 -0.0020306824     1     9     7     7
 0.0312148440     1     9     8     2
 -0.0058986714     1     9     8     4
 -0.0012123765     1     9     8     6
 -0.0036837946     1     9     8     8
 -0.1692786832     1     9     9     1
 -0.0037524801     1     9     9     3
 -0.0010239103     1     9     9     5
 0.0036320287     1     9     9     7
 -0.1369988853     2     1     1     2
 -0.0151346438     2     1     1     4
 -0.0103219843     2     1     1     6
 0.0008467781     2     1     1     8
 -0.0486964864     2     1     3     2
 0.0122846379     2     1     3     4
 -0.0161603895     2     1     3     6
 0.0003237101     2     1     3     8
 0.0439145983     2     1     4     3
 -0.0365844563     2     1     4     5
 0.0049276317     2     1     4     7
 -0.0123905587     2     1     4     9
 -0.0014289826     2     1     5     2
 -0.0512256002     2     1     5     4
 -0.0459458569     2     1     5     6
 -0.0147881325     2     1     5     8
 -0.0215413398     2     1     6     3
 -0.0567396524     2     1     6     5
 -0.0057736733     2     1     6     7
 0.0048829739     2     1     6     9
 0.0038781572     2     1     7     2
 0.0067072940     2     1     7     4
 -0.0062070184     2     1     7     6
 0.0498844964     2     1     7     8
 -0.0031091452     2     1     8     3
 -0.0171888855     2     1     8     5
 0.0506313206     2     1     8     7
 -0.0314288379     2     1     8     9
 0.0048211878     2     1     9     2
 -0.0120085906     2     1     9     4
 0.0084027283     2     1     9     6
 -0.0312148440     2     1     9     8
 0.1369988853     2     2     1     1
 0.0486964864     2     2     1     3
 0.0014289826     2     2     1     5
 -0.0038781572     2     2     1     7
 -0.0048211878     2     2     1     9
 0.0486964864     2     2     3     1
 0.1423840985     2     2     3     3
 0.0080169802     2     2     3     5
 -0.0024562483     2     2     3     7
 -0.0072199719     2     2     3     9
 0.1751389249     2     2     4     4
 -0.0079268417     2     2     4     6
 0.0069412269     2     2     4     8
 0.0014289826     2     2     5     1
 0.0080169802     2     2     5     3
 0.1835102293     2     2     5     5
 -0.0081946705     2     2     5     7
 0.0178941887     2     2     5     9
 -0.0079268417     2     2     6     4
 0.1872847491     2     2     6     6
 0.0170126606     2     2     6     8
 -0.0038781572     2     2     7     1
 -0.0024562483     2     2     7     3
 -0.0081946705     2     2     7     5
 0.1703630093     2     2     7     7
 0.0036005476     2     2     7     9
 0.0069412269     2     2     8     4
 0.0170126606     2     2     8     6
 0.1720999361     2     2     8     8
 -0.0048211878     2     2     9     1
 -0.0072199719     2     2     9     3
 0.0178941887     2     2     9     5
 0.0036005476     2     2     9     7
 0.1657807116     2     2     9     9
 -0.0486964864     2     3     1     2
 -0.0316839639     2     3     1     4
 0.0054425558     2     3     1     6
 0.0033206500     2     3     1     8
 -0.1423840985     2     3     3     2
 -0.0558089973     2     3     3     4
 0.0035488385     2     3     3     6
 0.0028926244     2     3     3     8
 -0.0439145983     2     3     4     1
 0.0566937989     2     3     4     5
 -0.0000384342     2     3     4     7
 0.0123280076     2     3     4     9
 -0.0080169802     2     3     5     2
 0.0308179067     2     3     5     4
 0.0501241968     2     3     5     6
 0.0113934059     2     3     5     8
 0.0215413398     2     3     6     1
 0.0327553215     2     3     6     5
 0.0069395222     2     3     6     7
 -0.0138421624     2     3     6     9
 0.0024562483     2     3     7     2
 0.0004525673     2     3     7     4
 0.0062753984     2     3     7     6
 -0.0481518280     2     3     7     8
 0.0031091452     2     3     8     1
 0.0088063198     2     3     8     5
 -0.0473072298     2     3     8     7
 0.0377927352     2     3     8     9
 0.0072199719     2     3     9     2
 0.0120272201     2     3     9     4
 -0.0072630608     2     3     9     6
 0.0382470418     2     3     9     8
 0.0151346438     2     4     1     1
 0.0316839639     2     4     1     3
 0.0152312742     2     4     1     5
 -0.0016789245     2     4     1     7
 -0.0001000833     2     4     1     9
 -0.0122846379     2     4     3     1
 0.0558089973     2     4     3     3
 0.0276859189     2     4     3     5
 -0.0003637122     2     4     3     7
 0.0011562214     2     4     3     9
 -0.1751389249     2     4     4     2
 -0.0369395237     2     4     4     6
 0.0027870316     2     4     4     8
 0.0512256002     2     4     5     1
 -0.0308179067     2     4     5     3
 0.0035522944     2     4     5     5
 -0.0124183468     2     4     5     7
 0.0101395035     2     4     5     9
 0.0079268417     2     4     6     2
 0.0201518038     2     4     6     6
 0.0159777016     2     4     6     8
 -0.0067072940     2     4     7     1
 -0.0004525673     2     4     7     3
 -0.0038192974     2     4     7     5
 0.0178086046     2     4     7     7
 0.0237193419     2     4     7     9
 -0.0069412269     2     4     8     2
 0.0092740194     2     4     8     6
 -0.0001666753     2     4     8     8
 0.0120085906     2     4     9     1
 -0.0120272201     2     4     9     3
 -0.0016975044     2     4     9     5
 0.0210406683     2     4     9     7
 0.0028732184     2     4     9     9
 -0.0014289826     2     5     1     2
 -0.0152312742     2     5     1     4
 0.0121603063     2     5     1     6
 0.0029351251     2     5     1     8
 -0.0080169802     2     5     3     2
 -0.0276859189     2     5     3     4
 0.0177822337     2     5     3     6
 0.0025406826     2     5     3     8
 0.0365844563     2     5     4     1
 -0.0566937989     2     5     4     3
 -0.0085071762     2     5     4     7
 0.0121603028     2     5     4     9
 -0.1835102293     2     5     5     2
 -0.0035522944     2     5     5     4
 -0.0072726991     2     5     5     6
 0.0182189853     2     5     5     8
 0.0567396524     2     5     6     1
 -0.0327553215     2     5     6     3
 -0.0117825077     2     5     6     7
 0.0086090697     2     5     6     9
 0.0081946705     2     5     7     2
 0.0038192974     2     5     7     4
 -0.0029294221     2     5     7     6
 -0.0035862841     2     5     7     8
 0.0171888855     2     5     8     1
 -0.0088063198     2     5     8     3
 -0.0058748834     2     5     8     7
 -0.0098318623     2     5     8     9
 -0.0178941887     2     5     9     2
 0.0016975044     2     5     9     4
 -0.0010119852     2     5     9     6
 -0.0085944011     2     5     9     8
 0.0103219843     2     6     1     1
 -0.0054425558     2     6     1     3
 -0.0121603063     2     6     1     5
 0.0006177354     2     6     1     7
 -0.0041240565     2     6     1     9
 0.0161603895     2     6     3     1
 -0.0035488385     2     6     3     3
 -0.0177822337     2     6     3     5
 0.0005999175     2     6     3     7
 -0.0068943310     2     6     3     9
 0.0079268417     2     6     4     2
 0.0369395237     2     6     4     4
 0.0067468038     2     6     4     8
 0.0459458569     2     6     5     1
 -0.0501241968     2     6     5     3
 0.0072726991     2     6     5     5
 -0.0087929747     2     6     5     7
 0.0097027941     2     6     5     9
 -0.1872847491     2     6     6     2
 -0.0201518038     2     6     6     4
 0.0125101515     2     6     6     8
 0.0062070184     2     6     7     1
 -0.0062753984     2     6     7     3
 0.0029294221     2     6     7     5
 0.0045488214     2     6     7     7
 0.0013646368     2     6     7     9
 -0.0170126606     2     6     8     2
 -0.0092740194     2     6     8     4
 0.0073047991     2     6     8     8
 -0.0084027283     2     6     9     1
 0.0072630608     2     6     9     3
 0.0010119852     2     6     9     5
 0.0001492244     2     6     9     7
 0.0020679406     2     6     9     9
 0.0038781572     2     7     1     2
 0.0016789245     2     7     1     4
 -0.0006177354     2     7     1     6
 -0.0008237770     2     7     1     8
 0.0024562483     2     7     3     2
 0.0003637122     2     7     3     4
 -0.0005999175     2     7     3     6
 -0.0008112032     2     7     3     8
 -0.0049276317     2     7     4     1
 0.0000384342     2     7     4     3
 0.0085071762     2     7     4     5
 0.0026467211     2     7     4     9
 0.0081946705     2     7     5     2
 0.0124183468     2     7     5     4
 0.0087929747     2     7     5     6
 0.0022898096     2     7     5     8
 0.0057736733     2     7     6     1
 -0.0069395222     2     7     6     3
 0.0117825077     2     7     6     5
 0.0011869749     2     7     6     9
 -0.1703630093     2     7     7     2
 -0.0178086046     2     7     7     4
 -0.0045488214     2     7     7     6
 0.0000965813     2     7     7     8
 -0.0506313206     2     7     8     1
 0.0473072298     2     7     8     3
 0.0058748834     2     7     8     5
 0.0022572800     2     7     8     9
 -0.0036005476     2     7     9     2
 -0.0210406683     2     7     9     4
 -0.0001492244     2     7     9     6
 0.0016334910     2     7     9     8
 -0.0008467781     2     8     1     1
 -0.0033206500     2     8     1     3
 -0.0029351251     2     8     1     5
 0.0008237770     2     8     1     7
 -0.0003508836     2     8     1     9
 -0.0003237101     2     8     3     1
 -0.0028926244     2     8     3     3
 -0.0025406826     2     8     3     5
 0.0008112032     2     8     3     7
 -0.0004177036     2     8     3     9
 -0.0069412269     2     8     4     2
 -0.0027870316     2     8     4     4
 -0.0067468038     2     8     4     6
 0.0147881325     2     8     5     1
 -0.0113934059     2     8     5     3
 -0.0182189853     2     8     5     5
 -0.0022898096     2     8     5     7
 -0.0012310449     2     8     5     9
 -0.0170126606     2     8     6     2
 -0.0159777016     2     8     6     4
 -0.0125101515     2     8     6     6
 -0.0498844964     2     8     7     1
 0.0481518280     2     8     7     3
 0.0035862841     2     8     7     5
 -0.0000965813     2     8     7     7
 0.0006345196     2     8     7     9
 -0.1720999361     2     8     8     2
 0.0001666753     2     8     8     4
 -0.0073047991     2     8     8     6
 0.0312148440     2     8     9     1
 -0.0382470418     2     8     9     3
 0.0085944011     2     8     9     5
 -0.0016334910     2     8     9     7
 -0.0020983031     2     8     9     9
 0.0048211878     2     9     1     2
 0.0001000833     2     9     1     4
 0.0041240565     2     9     1     6
 0.0003508836     2     9     1     8
 0.0072199719     2     9     3     2
 -0.0011562214     2     9     3     4
 0.0068943310     2     9     3     6
 0.0004177036     2     9     3     8
 0.0123905587     2     9     4     1
 -0.0123280076     2     9     4     3
 -0.0121603028     2     9     4     5
 -0.0026467211     2     9     4     7
 -0.0178941887     2     9     5     2
 -0.0101395035     2     9     5     4
 -0.0097027941     2     9     5     6
 0.0012310449     2     9     5     8
 -0.0048829739     2     9     6     1
 0.0138421624     2     9     6     3
 -0.0086090697     2     9     6     5
 -0.0011869749     2     9     6     7
 -0.0036005476     2     9     7     2
 -0.0237193419     2     9     7     4
 -0.0013646368     2     9     7     6
 -0.0006345196     2     9     7     8
 0.0314288379     2     9     8     1
 -0.0377927352     2     9     8     3
 0.0098318623     2     9     8     5
 -0.0022572800     2     9     8     7
 -0.1657807116     2     9     9     2
 -0.0028732184     2     9     9     4
 -0.0020679406     2     9     9     6
 0.0020983031     2     9     9     8
 -0.1750057912     3     1     1     3
 -0.0326264774     3     1     1     5
 0.0009381561     3     1     1     7
 0.0021292185     3     1     1     9
 0.0486964864     3     1     2     2
 -0.0122846379     3     1     2     4
 0.0161603895     3     1     2     6
 -0.0003237101     3     1     2     8
 0.0316839639     3     1     4     2
 0.0108689830     3     1     4     4
 -0.0159224773     3     1     4     6
 -0.0085914968     3     1     4     8
 0.0312486028     3     1     5     3
 0.0010757380     3     1     5     5
 -0.0015832513     3     1     5     7
 -0.0004349059     3     1     5     9
 -0.0054425558     3     1     6     2
 -0.0367188564     3     1     6     4
 0.0217398462     3     1     6     6
 0.0121737135     3     1     6     8
 0.0043903749     3     1     7     3
 -0.0001332321     3     1     7     5
 0.0162330035     3     1     7     7
 0.0286209577     3     1     7     9
 -0.0033206500     3     1     8     2
 -0.0103297899     3     1     8     4
 0.0124959507     3     1     8     6
 -0.0068963730     3     1     8     8
 0.0097634996     3     1     9     3
 0.0064254623     3     1     9     5
 0.0290414111     3     1     9     7
 0.0037524801     3     1     9     9
 -0.0439145983     3     2     1     4
 0.0215413398     3     2     1     6
 0.0031091452     3     2     1     8
 -0.0486964864     3     2     2     1
 -0.1423840985     3     2     2     3
 -0.0080169802     3     2     2     5
 0.0024562483     3     2     2     7
 0.0072199719     3     2     2     9
 -0.0316839639     3     2     4     1
 -0.0558089973     3     2     4     3
 0.0308179067     3     2     4     5
 0.0004525673     3     2     4     7
 0.0120272201     3     2     4     9
 0.0566937989     3     2     5     4
 0.0327553215     3     2     5     6
 0.0088063198     3     2     5     8
 0.0054425558     3     2     6     1
 0.0035488385     3     2     6     3
 0.0501241968     3     2     6     5
 0.0062753984     3     2     6     7
 -0.0072630608     3     2     6     9
 -0.0000384342     3     2     7     4
 0.0069395222     3     2     7     6
 -0.0473072298     3     2     7     8
 0.0033206500     3     2     8     1
 0.0028926244     3     2     8     3
 0.0113934059     3     2     8     5
 -0.0481518280     3     2     8     7
 0.0382470418     3     2     8     9
 0.0123280076     3     2     9     4
 -0.0138421624     3     2     9     6
 0.0377927352     3     2     9     8
 0.1750057912     3     3     1     1
 -0.0312486028     3     3     1     5
 -0.0043903749     3     3     1     7
 -0.0097634996     3     3     1     9
 0.1423840985     3     3     2     2
 0.0558089973     3     3     2     4
 -0.0035488385     3     3     2     6
 -0.0028926244     3     3     2     8
 0.0558089973     3     3     4     2
 0.1797466107     3     3     4     4
 -0.0173599685     3     3     4     6
 -0.0029573911     3     3     4     8
 -0.0312486028     3     3     5     1
 0.1728337510     3     3     5     5
 -0.0030947430     3     3     5     7
 0.0179066367     3     3     5     9
 -0.0035488385     3     3     6     2
 -0.0173599685     3     3     6     4
 0.1868086490     3     3     6     6
 0.0195768467     3     3     6     8
 -0.0043903749     3     3     7     1
 -0.0030947430     3     3     7     5
 0.1756321491     3     3     7     7
 0.0175597273     3     3     7     9
 -0.0028926244     3     3     8     2
 -0.0029573911     3     3     8     4
 0.0195768467     3     3     8     6
 0.1662040279     3     3     8     8
 -0.0097634996     3     3     9     1
 0.0179066367     3     3     9     5
 0.0175597273     3     3     9     7
 0.1681593330     3     3     9     9
 0.0439145983     3     4     1     2
 0.0227478519     3     4     1     6
 0.0020093207     3     4     1     8
 0.0122846379     3     4     2     1
 -0.0558089973     3     4     2     3
 -0.0276859189     3     4     2     5
 0.0003637122     3     4     2     7
 -0.0011562214     3     4     2     9
 -0.0108689830     3     4     4     1
 -0.1797466107     3     4     4     3
 -0.0613024998     3     4     4     5
 0.0023752191     3     4     4     7
 0.0023513809     3     4     4     9
 -0.0566937989     3     4     5     2
 -0.0499699127     3     4     5     6
 -0.0004075949     3     4     5     8
 0.0367188564     3     4     6     1
 0.0173599685     3     4     6     3
 -0.0081230102     3     4     6     5
 -0.0162206819     3     4     6     7
 0.0119210032     3     4     6     9
 0.0000384342     3     4     7     2
 -0.0072886859     3     4     7     6
 0.0329346364     3     4     7     8
 0.0103297899     3     4     8     1
 0.0029573911     3     4     8     3
 0.0007310886     3     4     8     5
 0.0297772970     3     4     8     7
 -0.0251021238     3     4     8     9
 -0.0123280076     3     4     9     2
 -0.0008527940     3     4     9     6
 -0.0260554487     3     4     9     8
 0.0326264774     3     5     1     1
 0.0312486028     3     5     1     3
 -0.0013571802     3     5     1     7
 -0.0071439364     3     5     1     9
 0.0080169802     3     5     2     2
 0.0276859189     3     5     2     4
 -0.0177822337     3     5     2     6
 -0.0025406826     3     5     2     8
 -0.0308179067     3     5     4     2
 0.0613024998     3     5     4     4
 -0.0418758011     3     5     4     6
 -0.0012959699     3     5     4     8
 -0.0010757380     3     5     5     1
 -0.1728337510     3     5     5     3
 -0.0089280376     3     5     5     7
 0.0196713997     3     5     5     9
 -0.0501241968     3     5     6     2
 0.0081230102     3     5     6     4
 0.0116420020     3     5     6     6
 0.0201263619     3     5     6     8
 0.0001332321     3     5     7     1
 0.0030947430     3     5     7     3
 0.0179642807     3     5     7     7
 0.0239267348     3     5     7     9
 -0.0113934059     3     5     8     2
 -0.0007310886     3     5     8     4
 0.0076756831     3     5     8     6
 0.0016985354     3     5     8     8
 -0.0064254623     3     5     9     1
 -0.0179066367     3     5     9     3
 0.0228021501     3     5     9     7
 0.0069743804     3     5     9     9
 -0.0215413398     3     6     1     2
 -0.0227478519     3     6     1     4
 -0.0004129050     3     6     1     8
 -0.0161603895     3     6     2     1
 0.0035488385     3     6     2     3
 0.0177822337     3     6     2     5
 -0.0005999175     3     6     2     7
 0.0068943310     3     6     2     9
 0.0159224773     3     6     4     1
 0.0173599685     3     6     4     3
 0.0418758011     3     6     4     5
 -0.0088984857     3     6     4     7
 0.0127667235     3     6     4     9
 -0.0327553215     3     6     5     2
 0.0499699127     3     6     5     4
 0.0124334504     3     6     5     8
 -0.0217398462     3     6     6     1
 -0.1868086490     3     6     6     3
 -0.0116420020     3     6     6     5
 0.0003983684     3     6     6     7
 0.0125268208     3     6     6     9
 -0.0069395222     3     6     7     2
 0.0072886859     3     6     7     4
 -0.0099980337     3     6     7     8
 -0.0124959507     3     6     8     1
 -0.0195768467     3     6     8     3
 -0.0076756831     3     6     8     5
 -0.0090826601     3     6     8     7
 -0.0031015542     3     6     8     9
 0.0138421624     3     6     9     2
 0.0008527940     3     6     9     4
 -0.0047287586     3     6     9     8
 -0.0009381561     3     7     1     1