&FCI NORB=  7,NELEC= 10,MS2=0,
 ORBSYM=1,1,1,1,1,1,1
 ISYM=1,
&END
 0.9838442730     1     1     2     2
 0.0677124806     1     1     2     4
 -0.1276889524     1     1     2     6
 0.8678745396     1     1     3     3
 0.1492580806     1     1     3     7
 0.0677124806     1     1     4     2
 0.9495888789     1     1     4     4
 0.0642301700     1     1     4     6
 0.9969473107     1     1     5     5
 -0.1276889524     1     1     6     2
 0.0642301700     1     1     6     4
 0.3485270775     1     1     6     6
 0.1492580806     1     1     7     3
 0.3259626537     1     1     7     7
 -0.9838442730     1     2     2     1
 -0.0070603909     1     2     2     4
 -0.0011330751     1     2     2     6
 0.0310067446     1     2     3     3
 0.0122136833     1     2     3     7
 -0.0677124806     1     2     4     1
 0.0359452980     1     2     4     4
 0.0067582668     1     2     4     6
 0.0408599526     1     2     5     5
 0.1276889524     1     2     6     1
 0.0063441598     1     2     6     4
 0.0018334170     1     2     6     6
 0.0085169096     1     2     7     3
 0.0047919743     1     2     7     7
 0.0027031429     1     3     2     7
 -0.8678745396     1     3     3     1
 -0.0310067446     1     3     3     2
 -0.0105954526     1     3     3     4
 0.0045031277     1     3     3     6
 -0.0011965467     1     3     4     7
 0.0021057229     1     3     6     7
 -0.1492580806     1     3     7     1
 -0.0085169096     1     3     7     2
 -0.0030986668     1     3     7     4
 0.0043280313     1     3     7     6
 -0.0677124806     1     4     2     1
 0.0070603909     1     4     2     2
 -0.0002393747     1     4     2     6
 0.0105954526     1     4     3     3
 0.0020906651     1     4     3     7
 -0.9495888789     1     4     4     1
 -0.0359452980     1     4     4     2
 0.0089685917     1     4     4     6
 0.0137364848     1     4     5     5
 -0.0642301700     1     4     6     1
 -0.0063441598     1     4     6     2
 0.0040004320     1     4     6     6
 0.0030986668     1     4     7     3
 0.0026963257     1     4     7     7
 -0.9969473107     1     5     5     1
 -0.0408599526     1     5     5     2
 -0.0137364848     1     5     5     4
 0.0086829627     1     5     5     6
 0.1276889524     1     6     2     1
 0.0011330751     1     6     2     2
 0.0002393747     1     6     2     4
 -0.0045031277     1     6     3     3
 -0.0021483214     1     6     3     7
 -0.0642301700     1     6     4     1
 -0.0067582668     1     6     4     2
 -0.0089685917     1     6     4     4
 -0.0086829627     1     6     5     5
 -0.3485270775     1     6     6     1
 -0.0018334170     1     6     6     2
 -0.0040004320     1     6     6     4
 -0.0043280313     1     6     7     3
 -0.0017581211     1     6     7     7
 -0.0027031429     1     7     2     3
 -0.1492580806     1     7     3     1
 -0.0122136833     1     7     3     2
 -0.0020906651     1     7     3     4
 0.0021483214     1     7     3     6
 0.0011965467     1     7     4     3
 -0.0021057229     1     7     6     3
 -0.3259626537     1     7     7     1
 -0.0047919743     1     7     7     2
 -0.0026963257     1     7     7     4
 0.0017581211     1     7     7     6
 -0.9838442730     2     1     1     2
 -0.0677124806     2     1     1     4
 0.1276889524     2     1     1     6
 0.0310067446     2     1     3     3
 0.0085169096     2     1     3     7
 -0.0070603909     2     1     4     2
 0.0359452980     2     1     4     4
 0.0063441598     2     1     4     6
 0.0408599526     2     1     5     5
 -0.0011330751     2     1     6     2
 0.0067582668     2     1     6     4
 0.0018334170     2     1     6     6
 0.0122136833     2     1     7     3
 0.0047919743     2     1     7     7
 0.9838442730     2     2     1     1
 0.0070603909     2     2     1     4
 0.0011330751     2     2     1     6
 0.5274902937     2     2     3     3
 0.0606413624     2     2     3     7
 0.0070603909     2     2     4     1
 0.5507829864     2     2     4     4
 0.0267636340     2     2     4     6
 0.5782928393     2     2     5     5
 0.0011330751     2     2     6     1
 0.0267636340     2     2     6     4
 0.3032472719     2     2     6     6
 0.0606413624     2     2     7     3
 0.2845092092     2     2     7     7
 -0.0027031429     2     3     1     7
 -0.0310067446     2     3     3     1
 -0.5274902937     2     3     3     2
 -0.0018974401     2     3     3     4
 0.0590074818     2     3     3     6
 0.0096595245     2     3     4     7
 -0.0340229035     2     3     6     7
 -0.0122136833     2     3     7     1
 -0.0606413624     2     3     7     2
 0.0017812509     2     3     7     4
 -0.0217454724     2     3     7     6
 0.0677124806     2     4     1     1
 -0.0070603909     2     4     1     2
 0.0002393747     2     4     1     6
 0.0018974401     2     4     3     3
 0.0080971734     2     4     3     7
 -0.0359452980     2     4     4     1
 -0.5507829864     2     4     4     2
 0.0586716736     2     4     4     6
 0.0045111882     2     4     5     5
 -0.0067582668     2     4     6     1
 -0.0267636340     2     4     6     2
 -0.0110171470     2     4     6     6
 -0.0017812509     2     4     7     3
 -0.0123940912     2     4     7     7
 -0.0408599526     2     5     5     1
 -0.5782928393     2     5     5     2
 -0.0045111882     2     5     5     4
 0.0574609478     2     5     5     6
 -0.1276889524     2     6     1     1
 -0.0011330751     2     6     1     2
 -0.0002393747     2     6     1     4
 -0.0590074818     2     6     3     3
 -0.0117121072     2     6     3     7
 -0.0063441598     2     6     4     1
 -0.0267636340     2     6     4     2
 -0.0586716736     2     6     4     4
 -0.0574609478     2     6     5     5
 -0.0018334170     2     6     6     1
 -0.3032472719     2     6     6     2
 0.0110171470     2     6     6     4
 0.0217454724     2     6     7     3
 -0.0082295713     2     6     7     7
 0.0027031429     2     7     1     3
 -0.0085169096     2     7     3     1
 -0.0606413624     2     7     3     2
 -0.0080971734     2     7     3     4
 0.0117121072     2     7     3     6
 -0.0096595245     2     7     4     3
 0.0340229035     2     7     6     3
 -0.0047919743     2     7     7     1
 -0.2845092092     2     7     7     2
 0.0123940912     2     7     7     4
 0.0082295713     2     7     7     6
 -0.8678745396     3     1     1     3
 -0.1492580806     3     1     1     7
 -0.0310067446     3     1     2     3
 -0.0085169096     3     1     2     7
 -0.0105954526     3     1     4     3
 -0.0030986668     3     1     4     7
 0.0045031277     3     1     6     3
 0.0043280313     3     1     6     7
 0.0027031429     3     1     7     2
 -0.0011965467     3     1     7     4
 0.0021057229     3     1     7     6
 -0.0310067446     3     2     1     3
 -0.0122136833     3     2     1     7
 -0.5274902937     3     2     2     3
 -0.0606413624     3     2     2     7
 -0.0018974401     3     2     4     3
 0.0017812509     3     2     4     7
 0.0590074818     3     2     6     3
 -0.0217454724     3     2     6     7
 -0.0027031429     3     2     7     1
 0.0096595245     3     2     7     4
 -0.0340229035     3     2     7     6
 0.8678745396     3     3     1     1
 0.0310067446     3     3     1     2
 0.0105954526     3     3     1     4
 -0.0045031277     3     3     1     6
 0.0310067446     3     3     2     1
 0.5274902937     3     3     2     2
 0.0018974401     3     3     2     4
 -0.0590074818     3     3     2     6
 0.0105954526     3     3     4     1
 0.0018974401     3     3     4     2
 0.5618736459     3     3     4     4
 0.0298142616     3     3     4     6
 0.5855722852     3     3     5     5
 -0.0045031277     3     3     6     1
 -0.0590074818     3     3     6     2
 0.0298142616     3     3     6     4
 0.3064727023     3     3     6     6
 0.2709094970     3     3     7     7
 -0.0105954526     3     4     1     3
 -0.0020906651     3     4     1     7
 -0.0018974401     3     4     2     3
 -0.0080971734     3     4     2     7
 -0.5618736459     3     4     4     3
 -0.0751373931     3     4     4     7
 -0.0298142616     3     4     6     3
 0.0005894798     3     4     6     7
 0.0011965467     3     4     7     1
 -0.0096595245     3     4     7     2
 0.0079173009     3     4     7     6
 -0.5855722852     3     5     5     3
 -0.0775407239     3     5     5     7
 0.0045031277     3     6     1     3
 0.0021483214     3     6     1     7
 0.0590074818     3     6     2     3
 0.0117121072     3     6     2     7
 -0.0298142616     3     6     4     3
 -0.0067849144     3     6     4     7
 -0.3064727023     3     6     6     3
 -0.0254973638     3     6     6     7
 -0.0021057229     3     6     7     1
 0.0340229035     3     6     7     2
 -0.0079173009     3     6     7     4
 0.1492580806     3     7     1     1
 0.0122136833     3     7     1     2
 0.0020906651     3     7     1     4
 -0.0021483214     3     7     1     6
 0.0085169096     3     7     2     1
 0.0606413624     3     7     2     2
 0.0080971734     3     7     2     4
 -0.0117121072     3     7     2     6
 0.0030986668     3     7     4     1
 -0.0017812509     3     7     4     2
 0.0751373931     3     7     4     4
 0.0067849144     3     7     4     6
 0.0775407239     3     7     5     5
 -0.0043280313     3     7     6     1
 0.0217454724     3     7     6     2
 -0.0005894798     3     7     6     4
 0.0254973638     3     7     6     6
 -0.2709094970     3     7     7     3
 -0.0677124806     4     1     1     2
 -0.9495888789     4     1     1     4
 -0.0642301700     4     1     1     6
 0.0070603909     4     1     2     2
 -0.0359452980     4     1     2     4
 -0.0063441598     4     1     2     6
 0.0105954526     4     1     3     3
 0.0030986668     4     1     3     7
 0.0137364848     4     1     5     5
 -0.0002393747     4     1     6     2
 0.0089685917     4     1     6     4
 0.0040004320     4     1     6     6
 0.0020906651     4     1     7     3
 0.0026963257     4     1     7     7
 0.0677124806     4     2     1     1
 -0.0359452980     4     2     1     4
 -0.0067582668     4     2     1     6
 -0.0070603909     4     2     2     1
 -0.5507829864     4     2     2     4
 -0.0267636340     4     2     2     6
 0.0018974401     4     2     3     3
 -0.0017812509     4     2     3     7
 0.0045111882     4     2     5     5
 0.0002393747     4     2     6     1
 0.0586716736     4     2     6     4
 -0.0110171470     4     2     6     6
 0.0080971734     4     2     7     3
 -0.0123940912     4     2     7     7
 0.0011965467     4     3     1     7
 -0.0096595245     4     3     2     7
 -0.0105954526     4     3     3     1
 -0.0018974401     4     3     3     2
 -0.5618736459     4     3     3     4
 -0.0298142616     4     3     3     6
 0.0079173009     4     3     6     7
 -0.0020906651     4     3     7     1
 -0.0080971734     4     3     7     2
 -0.0751373931     4     3     7     4
 0.0005894798     4     3     7     6
 0.9495888789     4     4     1     1
 0.0359452980     4     4     1     2
 -0.0089685917     4     4     1     6
 0.0359452980     4     4     2     1
 0.5507829864     4     4     2     2
 -0.0586716736     4     4     2     6
 0.5618736459     4     4     3     3
 0.0751373931     4     4     3     7
 0.6063705375     4     4     5     5
 -0.0089685917     4     4     6     1
 -0.0586716736     4     4     6     2
 0.2927144215     4     4     6     6
 0.0751373931     4     4     7     3
 0.2741179271     4     4     7     7
 -0.0137364848     4     5     5     1
 -0.0045111882     4     5     5     2
 -0.6063705375     4     5     5     4
 -0.0357102164     4     5     5     6
 0.0642301700     4     6     1     1
 0.0067582668     4     6     1     2
 0.0089685917     4     6     1     4
 0.0063441598     4     6     2     1
 0.0267636340     4     6     2     2
 0.0586716736     4     6     2     4
 0.0298142616     4     6     3     3
 0.0067849144     4     6     3     7
 0.0357102164     4     6     5     5
 -0.0040004320     4     6     6     1
 0.0110171470     4     6     6     2
 -0.2927144215     4     6     6     4
 -0.0005894798     4     6     7     3
 0.0075639124     4     6     7     7
 -0.0011965467     4     7     1     3
 0.0096595245     4     7     2     3
 -0.0030986668     4     7     3     1
 0.0017812509     4     7     3     2
 -0.0751373931     4     7     3     4
 -0.0067849144     4     7     3     6
 -0.0079173009     4     7     6     3
 -0.0026963257     4     7     7     1
 0.0123940912     4     7     7     2
 -0.2741179271     4     7     7     4
 -0.0075639124     4     7     7     6
 -0.9969473107     5     1     1     5
 -0.0408599526     5     1     2     5
 -0.0137364848     5     1     4     5
 0.0086829627     5     1     6     5
 -0.0408599526     5     2     1     5
 -0.5782928393     5     2     2     5
 -0.0045111882     5     2     4     5
 0.0574609478     5     2     6     5
 -0.5855722852     5     3     3     5
 -0.0775407239     5     3     7     5
 -0.0137364848     5     4     1     5
 -0.0045111882     5     4     2     5
 -0.6063705375     5     4     4     5
 -0.0357102164     5     4     6     5
 0.9969473107     5     5     1     1
 0.0408599526     5     5     1     2
 0.0137364848     5     5     1     4
 -0.0086829627     5     5     1     6
 0.0408599526     5     5     2     1
 0.5782928393     5     5     2     2
 0.0045111882     5     5     2     4
 -0.0574609478     5     5     2     6
 0.5855722852     5     5     3     3
 0.0775407239     5     5     3     7
 0.0137364848     5     5     4     1
 0.0045111882     5     5     4     2
 0.6063705375     5     5     4     4
 0.0357102164     5     5     4     6
 -0.0086829627     5     5     6     1
 -0.0574609478     5     5     6     2
 0.0357102164     5     5     6     4
 0.3020900539     5     5     6     6
 0.0775407239     5     5     7     3
 0.2791498596     5     5     7     7
 0.0086829627     5     6     1     5
 0.0574609478     5     6     2     5
 -0.0357102164     5     6     4     5
 -0.3020900539     5     6     6     5
 -0.0775407239     5     7     3     5
 -0.2791498596     5     7     7     5
 0.1276889524     6     1     1     2
 -0.0642301700     6     1     1     4
 -0.3485270775     6     1     1     6
 0.0011330751     6     1     2     2
 -0.0067582668     6     1     2     4
 -0.0018334170     6     1     2     6
 -0.0045031277     6     1     3     3
 -0.0043280313     6     1     3     7
 0.0002393747     6     1     4     2
 -0.0089685917     6     1     4     4
 -0.0040004320     6     1     4     6
 -0.0086829627     6     1     5     5
 -0.0021483214     6     1     7     3
 -0.0017581211     6     1     7     7
 -0.1276889524     6     2     1     1
 -0.0063441598     6     2     1     4
 -0.0018334170     6     2     1     6
 -0.0011330751     6     2     2     1
 -0.0267636340     6     2     2     4
 -0.3032472719     6     2     2     6
 -0.0590074818     6     2     3     3
 0.0217454724     6     2     3     7
 -0.0002393747     6     2     4     1
 -0.0586716736     6     2     4     4
 0.0110171470     6     2     4     6
 -0.0574609478     6     2     5     5
 -0.0117121072     6     2     7     3
 -0.0082295713     6     2     7     7
 -0.0021057229     6     3     1     7
 0.0340229035     6     3     2     7
 0.0045031277     6     3     3     1
 0.0590074818     6     3     3     2
 -0.0298142616     6     3     3     4
 -0.3064727023     6     3     3     6
 -0.0079173009     6     3     4     7
 0.0021483214     6     3     7     1
 0.0117121072     6     3     7     2
 -0.0067849144     6     3     7     4
 -0.0254973638     6     3     7     6
 0.0642301700     6     4     1     1
 0.0063441598     6     4     1     2
 -0.0040004320     6     4     1     6
 0.0067582668     6     4     2     1
 0.0267636340     6     4     2     2
 0.0110171470     6     4     2     6
 0.0298142616     6     4     3     3
 -0.0005894798     6     4     3     7
 0.0089685917     6     4     4     1
 0.0586716736     6     4     4     2
 -0.2927144215     6     4     4     6
 0.0357102164     6     4     5     5
 0.0067849144     6     4     7     3
 0.0075639124     6     4     7     7
 0.0086829627     6     5     5     1
 0.0574609478     6     5     5     2
 -0.0357102164     6     5     5     4
 -0.3020900539     6     5     5     6
 0.3485270775     6     6     1     1
 0.0018334170     6     6     1     2
 0.0040004320     6     6     1     4
 0.0018334170     6     6     2     1
 0.3032472719     6     6     2     2
 -0.0110171470     6     6     2     4
 0.3064727023     6     6     3     3
 0.0254973638     6     6     3     7
 0.0040004320     6     6     4     1
 -0.0110171470     6     6     4     2
 0.2927144215     6     6     4     4
 0.3020900539     6     6     5     5
 0.0254973638     6     6     7     3
 0.1880276488     6     6     7     7
 0.0021057229     6     7     1     3
 -0.0340229035     6     7     2     3
 0.0043280313     6     7     3     1
 -0.0217454724     6     7     3     2
 0.0005894798     6     7     3     4
 -0.0254973638     6     7     3     6
 0.0079173009     6     7     4     3
 0.0017581211     6     7     7     1
 0.0082295713     6     7     7     2
 -0.0075639124     6     7     7     4
 -0.1880276488     6     7     7     6
 -0.1492580806     7     1     1     3
 -0.3259626537     7     1     1     7
 -0.0122136833     7     1     2     3
 -0.0047919743     7     1     2     7
 -0.0027031429     7     1     3     2
 0.0011965467     7     1     3     4
 -0.0021057229     7     1     3     6
 -0.0020906651     7     1     4     3
 -0.0026963257     7     1     4     7
 0.0021483214     7     1     6     3
 0.0017581211     7     1     6     7
 -0.0085169096     7     2     1     3
 -0.0047919743     7     2     1     7
 -0.0606413624     7     2     2     3
 -0.2845092092     7     2     2     7
 0.0027031429     7     2     3     1
 -0.0096595245     7     2     3     4
 0.0340229035     7     2     3     6
 -0.0080971734     7     2     4     3
 0.0123940912     7     2     4     7
 0.0117121072     7     2     6     3
 0.0082295713     7     2     6     7
 0.1492580806     7     3     1     1
 0.0085169096     7     3     1     2
 0.0030986668     7     3     1     4
 -0.0043280313     7     3     1     6
 0.0122136833     7     3     2     1
 0.0606413624     7     3     2     2
 -0.0017812509     7     3     2     4
 0.0217454724     7     3     2     6
 -0.2709094970     7     3     3     7
 0.0020906651     7     3     4     1
 0.0080971734     7     3     4     2
 0.0751373931     7     3     4     4
 -0.0005894798     7     3     4     6
 0.0775407239     7     3     5     5
 -0.0021483214     7     3     6     1
 -0.0117121072     7     3     6     2
 0.0067849144     7     3     6     4
 0.0254973638     7     3     6     6
 -0.0030986668     7     4     1     3
 -0.0026963257     7     4     1     7
 0.0017812509     7     4     2     3
 0.0123940912     7     4     2     7
 -0.0011965467     7     4     3     1
 0.0096595245     7     4     3     2
 -0.0079173009     7     4     3     6
 -0.0751373931     7     4     4     3
 -0.2741179271     7     4     4     7
 -0.0067849144     7     4     6     3
 -0.0075639124     7     4     6     7
 -0.0775407239     7     5     5     3
 -0.2791498596     7     5     5     7
 0.0043280313     7     6     1     3
 0.0017581211     7     6     1     7
 -0.0217454724     7     6     2     3
 0.0082295713     7     6     2     7
 0.0021057229     7     6     3     1
 -0.0340229035     7     6     3     2
 0.0079173009     7     6     3     4
 0.0005894798     7     6     4     3
 -0.0075639124     7     6     4     7
 -0.0254973638     7     6     6     3
 -0.1880276488     7     6     6     7
 0.3259626537     7     7     1     1
 0.0047919743     7     7     1     2
 0.0026963257     7     7     1     4
 -0.0017581211     7     7     1     6
 0.0047919743     7     7     2     1
 0.2845092092     7     7     2     2
 -0.0123940912     7     7     2     4
 -0.0082295713     7     7     2     6
 0.2709094970     7     7     3     3
 0.0026963257     7     7     4     1
 -0.0123940912     7     7     4     2
 0.2741179271     7     7     4     4
 0.0075639124     7     7     4     6
 0.2791498596     7     7     5     5
 -0.0017581211     7     7     6     1
 -0.0082295713     7     7     6     2
 0.0075639124     7     7     6     4
 0.1880276488     7     7     6     6
0.0 0 0 0 0
 0.9838442730     1     1     2     2
 0.0677124806     1     1     2     4
 -0.1276889524     1     1     2     6
 0.8678745396     1     1     3     3
 0.1492580806     1     1     3     7
 0.0677124806     1     1     4     2
 0.9495888789     1     1     4     4
 0.0642301700     1     1     4     6
 0.9969473107     1     1     5     5
 -0.1276889524     1     1     6     2
 0.0642301700     1     1     6     4
 0.3485270775     1     1     6     6
 0.1492580806     1     1     7     3
 0.3259626537     1     1     7     7
 -0.9838442730     1     2     2     1
 -0.0070603909     1     2     2     4
 -0.0011330751     1     2     2     6
 0.0310067446     1     2     3     3
 0.0122136833     1     2     3     7
 -0.0677124806     1     2     4     1
 0.0359452980     1     2     4     4
 0.0067582668     1     2     4     6
 0.0408599526     1     2     5     5
 0.1276889524     1     2     6     1
 0.0063441598     1     2     6     4
 0.0018334170     1     2     6     6
 0.0085169096     1     2     7     3
 0.0047919743     1     2     7     7
 0.0027031429     1     3     2     7
 -0.8678745396     1     3     3     1
 -0.0310067446     1     3     3     2
 -0.0105954526     1     3     3     4
 0.0045031277     1     3     3     6
 -0.0011965467     1     3     4     7
 0.0021057229     1     3     6     7
 -0.1492580806     1     3     7     1
 -0.0085169096     1     3     7     2
 -0.0030986668     1     3     7     4
 0.0043280313     1     3     7     6
 -0.0677124806     1     4     2     1
 0.0070603909     1     4     2     2
 -0.0002393747     1     4     2     6
 0.0105954526     1     4     3     3
 0.0020906651     1     4     3     7
 -0.9495888789     1     4     4     1
 -0.0359452980     1     4     4     2
 0.0089685917     1     4     4     6
 0.0137364848     1     4     5     5
 -0.0642301700     1     4     6     1
 -0.0063441598     1     4     6     2
 0.0040004320     1     4     6     6
 0.0030986668     1     4     7     3
 0.0026963257     1     4     7     7
 -0.9969473107     1     5     5     1
 -0.0408599526     1     5     5     2
 -0.0137364848     1     5     5     4
 0.0086829627     1     5     5     6
 0.1276889524     1     6     2     1
 0.0011330751     1     6     2     2
 0.0002393747     1     6     2     4
 -0.0045031277     1     6     3     3
 -0.0021483214     1     6     3     7
 -0.0642301700     1     6     4     1
 -0.0067582668     1     6     4     2
 -0.0089685917     1     6     4     4
 -0.0086829627     1     6     5     5
 -0.3485270775     1     6     6     1
 -0.0018334170     1     6     6     2
 -0.0040004320     1     6     6     4
 -0.0043280313     1     6     7     3
 -0.0017581211     1     6     7     7
 -0.0027031429     1     7     2     3
 -0.1492580806     1     7     3     1
 -0.0122136833     1     7     3     2
 -0.0020906651     1     7     3     4
 0.0021483214     1     7     3     6
 0.0011965467     1     7     4     3
 -0.0021057229     1     7     6     3
 -0.3259626537     1     7     7     1
 -0.0047919743     1     7     7     2
 -0.0026963257     1     7     7     4
 0.0017581211     1     7     7     6
 -0.9838442730     2     1     1     2
 -0.0677124806     2     1     1     4
 0.1276889524     2     1     1     6
 0.0310067446     2     1     3     3
 0.0085169096     2     1     3     7
 -0.0070603909     2     1     4     2
 0.0359452980     2     1     4     4
 0.0063441598     2     1     4     6
 0.0408599526     2     1     5     5
 -0.0011330751     2     1     6     2
 0.0067582668     2     1     6     4
 0.0018334170     2     1     6     6
 0.0122136833     2     1     7     3
 0.0047919743     2     1     7     7
 0.9838442730     2     2     1     1
 0.0070603909     2     2     1     4
 0.0011330751     2     2     1     6
 0.5274902937     2     2     3     3
 0.0606413624     2     2     3     7
 0.0070603909     2     2     4     1
 0.5507829864     2     2     4     4
 0.0267636340     2     2     4     6
 0.5782928393     2     2     5     5
 0.0011330751     2     2     6     1
 0.0267636340     2     2     6     4
 0.3032472719     2     2     6     6
 0.0606413624     2     2     7     3
 0.2845092092     2     2     7     7
 -0.0027031429     2     3     1     7
 -0.0310067446     2     3     3     1
 -0.5274902937     2     3     3     2
 -0.0018974401     2     3     3     4
 0.0590074818     2     3     3     6
 0.0096595245     2     3     4     7
 -0.0340229035     2     3     6     7
 -0.0122136833     2     3     7     1
 -0.0606413624     2     3     7     2
 0.0017812509     2     3     7     4
 -0.0217454724     2     3     7     6
 0.0677124806     2     4     1     1
 -0.0070603909     2     4     1     2
 0.0002393747     2     4     1     6
 0.0018974401     2     4     3     3
 0.0080971734     2     4     3     7
 -0.0359452980     2     4     4     1
 -0.5507829864     2     4     4     2
 0.0586716736     2     4     4     6
 0.0045111882     2     4     5     5
 -0.0067582668     2     4     6     1
 -0.0267636340     2     4     6     2
 -0.0110171470     2     4     6     6
 -0.0017812509     2     4     7     3
 -0.0123940912     2     4     7     7
 -0.0408599526     2     5     5     1
 -0.5782928393     2     5     5     2
 -0.0045111882     2     5     5     4
 0.0574609478     2     5     5     6
 -0.1276889524     2     6     1     1
 -0.0011330751     2     6     1     2
 -0.0002393747     2     6     1     4
 -0.0590074818     2     6     3     3
 -0.0117121072     2     6     3     7
 -0.0063441598     2     6     4     1
 -0.0267636340     2     6     4     2
 -0.0586716736     2     6     4     4
 -0.0574609478     2     6     5     5
 -0.0018334170     2     6     6     1
 -0.3032472719     2     6     6     2
 0.0110171470     2     6     6     4
 0.0217454724     2     6     7     3
 -0.0082295713     2     6     7     7
 0.0027031429     2     7     1     3
 -0.0085169096     2     7     3     1
 -0.0606413624     2     7     3     2
 -0.0080971734     2     7     3     4
 0.0117121072     2     7     3     6
 -0.0096595245     2     7     4     3
 0.0340229035     2     7     6     3
 -0.0047919743     2     7     7     1
 -0.2845092092     2     7     7     2
 0.0123940912     2     7     7     4
 0.0082295713     2     7     7     6
 -0.8678745396     3     1     1     3
 -0.1492580806     3     1     1     7
 -0.0310067446     3     1     2     3
 -0.0085169096     3     1     2     7
 -0.0105954526     3     1     4     3
 -0.0030986668     3     1     4     7
 0.0045031277     3     1     6     3
 0.0043280313     3     1     6     7
 0.0027031429     3     1     7     2
 -0.0011965467     3     1     7     4
 0.0021057229     3     1     7     6
 -0.0310067446     3     2     1     3
 -0.0122136833     3     2     1     7
 -0.5274902937     3     2     2     3
 -0.0606413624     3     2     2     7
 -0.0018974401     3     2     4     3
 0.0017812509     3     2     4     7
 0.0590074818     3     2     6     3
 -0.0217454724     3     2     6     7
 -0.0027031429     3     2     7     1
 0.0096595245     3     2     7     4
 -0.0340229035     3     2     7     6
 0.8678745396     3     3     1     1
 0.0310067446     3     3     1     2
 0.0105954526     3     3     1     4
 -0.0045031277     3     3     1     6
 0.0310067446     3     3     2     1
 0.5274902937     3     3     2     2
 0.0018974401     3     3     2     4
 -0.0590074818     3     3     2     6
 0.0105954526     3     3     4     1
 0.0018974401     3     3     4     2
 0.5618736459     3     3     4     4
 0.0298142616     3     3     4     6
 0.5855722852     3     3     5     5
 -0.0045031277     3     3     6     1
 -0.0590074818     3     3     6     2
 0.0298142616     3     3     6     4
 0.3064727023     3     3     6     6
 0.2709094970     3     3     7     7
 -0.0105954526     3     4     1     3
 -0.0020906651     3     4     1     7
 -0.0018974401     3     4     2     3
 -0.0080971734     3     4     2     7
 -0.5618736459     3     4     4     3
 -0.0751373931     3     4     4     7
 -0.0298142616     3     4     6     3
 0.0005894798     3     4     6     7
 0.0011965467     3     4     7     1
 -0.0096595245     3     4     7     2
 0.0079173009     3     4     7     6
 -0.5855722852     3     5     5     3
 -0.0775407239     3     5     5     7
 0.0045031277     3     6     1     3
 0.0021483214     3     6     1     7
 0.0590074818     3     6     2     3
 0.0117121072     3     6     2     7
 -0.0298142616     3     6     4     3
 -0.0067849144     3     6     4     7
 -0.3064727023     3     6     6     3
 -0.0254973638     3     6     6     7
 -0.0021057229     3     6     7     1
 0.0340229035     3     6     7     2
 -0.0079173009     3     6     7     4
 0.1492580806     3     7     1     1
 0.0122136833     3     7     1     2
 0.0020906651     3     7     1     4
 -0.0021483214     3     7     1     6
 0.0085169096     3     7     2     1
 0.0606413624     3     7     2     2
 0.0080971734     3     7     2     4
 -0.0117121072     3     7     2     6
 0.0030986668     3     7     4     1
 -0.0017812509     3     7     4     2
 0.0751373931     3     7     4     4
 0.0067849144     3     7     4     6
 0.0775407239     3     7     5     5
 -0.0043280313     3     7     6     1
 0.0217454724     3     7     6     2
 -0.0005894798     3     7     6     4
 0.0254973638     3     7     6     6