&FCI NORB= 16,NELEC= 10,MS2=0,
 ORBSYM=1,1,1,1,1,1,1,1,1,1,1,1,1,1,1,1
 ISYM=1,
&END
 1.0008804344     1     1     2     2
 -0.0556322324     1     1     2     3
 0.0584940550     1     1     2     5
 -0.0911171209     1     1     2     6
 0.1075573275     1     1     2     7
 0.0174513443     1     1     2     8
 0.0726088537     1     1     2     9
 0.0422404888     1     1     2    10
 0.0647103856     1     1     2    12
 -0.1026532448     1     1     2    14
 -0.1365049834     1     1     2    16
 -0.0556322324     1     1     3     2
 0.8973960975     1     1     3     3
 -0.0756966024     1     1     3     5
 0.0710074636     1     1     3     6
 0.1323232754     1     1     3     7
 -0.0139116393     1     1     3     8
 -0.0099659646     1     1     3     9
 0.2600785230     1     1     3    10
 -0.0518792234     1     1     3    12
 -0.0673247360     1     1     3    14
 0.0266567617     1     1     3    16
 1.0129588469     1     1     4     4
 0.2254582950     1     1     4    11
 0.2438173785     1     1     4    13
 -0.0727405351     1     1     4    15
 0.0584940550     1     1     5     2
 -0.0756966024     1     1     5     3
 0.7358871609     1     1     5     5
 0.2953127903     1     1     5     6
 0.0505230943     1     1     5     7
 -0.0685044727     1     1     5     8
 0.0462218052     1     1     5     9
 -0.1154323867     1     1     5    10
 -0.0676063817     1     1     5    12
 -0.2071597453     1     1     5    14
 0.0887430311     1     1     5    16
 -0.0911171209     1     1     6     2
 0.0710074636     1     1     6     3
 0.2953127903     1     1     6     5
 0.5010543069     1     1     6     6
 0.0292672624     1     1     6     7
 -0.1132135593     1     1     6     8
 0.0067332983     1     1     6     9
 -0.0334851256     1     1     6    10
 -0.0932232559     1     1     6    12
 -0.1421184592     1     1     6    14
 0.1611119064     1     1     6    16
 0.1075573275     1     1     7     2
 0.1323232754     1     1     7     3
 0.0505230943     1     1     7     5
 0.0292672624     1     1     7     6
 0.3115213204     1     1     7     7
 -0.0279642732     1     1     7     8
 0.0445062550     1     1     7     9
 0.1067539503     1     1     7    10
 -0.0001599040     1     1     7    12
 -0.1075114722     1     1     7    14
 -0.0232707278     1     1     7    16
 0.0174513443     1     1     8     2
 -0.0139116393     1     1     8     3
 -0.0685044727     1     1     8     5
 -0.1132135593     1     1     8     6
 -0.0279642732     1     1     8     7
 0.2541869912     1     1     8     8
 -0.0096455229     1     1     8     9
 0.0121259514     1     1     8    10
 0.0103175691     1     1     8    12
 0.0305931238     1     1     8    14
 -0.0605850769     1     1     8    16
 0.0726088537     1     1     9     2
 -0.0099659646     1     1     9     3
 0.0462218052     1     1     9     5
 0.0067332983     1     1     9     6
 0.0445062550     1     1     9     7
 -0.0096455229     1     1     9     8
 0.3465745301     1     1     9     9
 0.0235054124     1     1     9    10
 0.0163063116     1     1     9    12
 -0.0524741278     1     1     9    14
 -0.0016741337     1     1     9    16
 0.0422404888     1     1    10     2
 0.2600785230     1     1    10     3
 -0.1154323867     1     1    10     5
 -0.0334851256     1     1    10     6
 0.1067539503     1     1    10     7
 0.0121259514     1     1    10     8
 0.0235054124     1     1    10     9
 0.4988890287     1     1    10    10
 0.0109530769     1     1    10    12
 0.0023409555     1     1    10    14
 -0.0314243824     1     1    10    16
 0.2254582950     1     1    11     4
 0.3848950239     1     1    11    11
 0.1139496200     1     1    11    13
 -0.0492417466     1     1    11    15
 0.0647103856     1     1    12     2
 -0.0518792234     1     1    12     3
 -0.0676063817     1     1    12     5
 -0.0932232559     1     1    12     6
 -0.0001599040     1     1    12     7
 0.0103175691     1     1    12     8
 0.0163063116     1     1    12     9
 0.0109530769     1     1    12    10
 0.3513438764     1     1    12    12
 0.0532853037     1     1    12    14
 -0.0508759983     1     1    12    16
 0.2438173785     1     1    13     4
 0.1139496200     1     1    13    11
 0.4434652111     1     1    13    13
 -0.0105727466     1     1    13    15
 -0.1026532448     1     1    14     2
 -0.0673247360     1     1    14     3
 -0.2071597453     1     1    14     5
 -0.1421184592     1     1    14     6
 -0.1075114722     1     1    14     7
 0.0305931238     1     1    14     8
 -0.0524741278     1     1    14     9
 0.0023409555     1     1    14    10
 0.0532853037     1     1    14    12
 0.4965242846     1     1    14    14
 -0.0517819210     1     1    14    16
 -0.0727405351     1     1    15     4
 -0.0492417466     1     1    15    11
 -0.0105727466     1     1    15    13
 0.3496851072     1     1    15    15
 -0.1365049834     1     1    16     2
 0.0266567617     1     1    16     3
 0.0887430311     1     1    16     5
 0.1611119064     1     1    16     6
 -0.0232707278     1     1    16     7
 -0.0605850769     1     1    16     8
 -0.0016741337     1     1    16     9
 -0.0314243824     1     1    16    10
 -0.0508759983     1     1    16    12
 -0.0517819210     1     1    16    14
 0.3959952843     1     1    16    16
 -1.0008804344     1     2     2     1
 -0.0061067147     1     2     2     3
 0.0007845467     1     2     2     5
 -0.0003870284     1     2     2     6
 -0.0024025176     1     2     2     7
 0.0001672724     1     2     2     8
 -0.0005216998     1     2     2     9
 -0.0049271741     1     2     2    10
 0.0003756721     1     2     2    12
 0.0019942606     1     2     2    14
 0.0003965245     1     2     2    16
 0.0556322324     1     2     3     1
 -0.0334760686     1     2     3     3
 0.0045182541     1     2     3     5
 -0.0033297723     1     2     3     6
 -0.0103021309     1     2     3     7
 0.0011182980     1     2     3     8
 -0.0016510974     1     2     3     9
 -0.0222466869     1     2     3    10
 0.0027683830     1     2     3    12
 0.0073414899     1     2     3    14
 -0.0008396863     1     2     3    16
 -0.0435556704     1     2     4     4
 -0.0176117210     1     2     4    11
 -0.0204978919     1     2     4    13
 0.0055515011     1     2     4    15
 -0.0584940550     1     2     5     1
 0.0039072420     1     2     5     3
 -0.0249160213     1     2     5     5
 -0.0179832677     1     2     5     6
 -0.0022906520     1     2     5     7
 0.0056661158     1     2     5     8
 -0.0027900258     1     2     5     9
 0.0087271964     1     2     5    10
 0.0067050141     1     2     5    12
 0.0158616757     1     2     5    14
 -0.0100643505     1     2     5    16
 0.0911171209     1     2     6     1
 -0.0023993972     1     2     6     3
 -0.0170744492     1     2     6     5
 -0.0137186304     1     2     6     6
 -0.0032937661     1     2     6     7
 0.0043739276     1     2     6     8
 -0.0020780387     1     2     6     9
 0.0027582564     1     2     6    10
 0.0052714657     1     2     6    12
 0.0125926961     1     2     6    14
 -0.0076058995     1     2     6    16
 -0.1075573275     1     2     7     1
 -0.0097089023     1     2     7     3
 -0.0018231686     1     2     7     5
 -0.0034382306     1     2     7     6
 -0.0031063316     1     2     7     7
 0.0011150137     1     2     7     8
 -0.0007662382     1     2     7     9
 -0.0053453370     1     2     7    10
 0.0016281860     1     2     7    12
 0.0042666590     1     2     7    14
 -0.0015565594     1     2     7    16
 -0.0174513443     1     2     8     1
 0.0007842461     1     2     8     3
 0.0051337392     1     2     8     5
 0.0041868052     1     2     8     6
 0.0010219768     1     2     8     7
 -0.0014706153     1     2     8     8
 0.0007361426     1     2     8     9
 -0.0008856876     1     2     8    10
 -0.0016134281     1     2     8    12
 -0.0038830383     1     2     8    14
 0.0023828268     1     2     8    16
 -0.0726088537     1     2     9     1
 -0.0015397054     1     2     9     3
 -0.0022224298     1     2     9     5
 -0.0018102775     1     2     9     6
 -0.0007164610     1     2     9     7
 0.0006806197     1     2     9     8
 -0.0004391897     1     2     9     9
 0.0001598013     1     2     9    10
 0.0006287535     1     2     9    12
 0.0016664946     1     2     9    14
 -0.0008970849     1     2     9    16
 -0.0422404888     1     2    10     1
 -0.0182106384     1     2    10     3
 0.0076307477     1     2    10     5
 0.0019276497     1     2    10     6
 -0.0044638470     1     2    10     7
 -0.0006637272     1     2    10     8
 0.0003132937     1     2    10     9
 -0.0129194500     1     2    10    10
 0.0003899132     1     2    10    12
 0.0001947749     1     2    10    14
 0.0015377226     1     2    10    16
 -0.0147576821     1     2    11     4
 -0.0062244075     1     2    11    11
 -0.0068608194     1     2    11    13
 0.0020303197     1     2    11    15
 -0.0647103856     1     2    12     1
 0.0019111200     1     2    12     3
 0.0052736933     1     2    12     5
 0.0043939253     1     2    12     6
 0.0012697129     1     2    12     7
 -0.0014000934     1     2    12     8
 0.0005770957     1     2    12     9
 0.0002041877     1     2    12    10
 -0.0017856348     1     2    12    12
 -0.0039343490     1     2    12    14
 0.0023582289     1     2    12    16
 -0.0164053829     1     2    13     4
 -0.0065173300     1     2    13    11
 -0.0073147540     1     2    13    13
 0.0025133054     1     2    13    15
 0.1026532448     1     2    14     1
 0.0064091330     1     2    14     3
 0.0124953934     1     2    14     5
 0.0108848007     1     2    14     6
 0.0038335460     1     2    14     7
 -0.0035061782     1     2    14     8
 0.0016287677     1     2    14     9
 0.0006917978     1     2    14    10
 -0.0041843616     1     2    14    12
 -0.0105150233     1     2    14    14
 0.0059513695     1     2    14    16
 0.0048733123     1     2    15     4
 0.0021455041     1     2    15    11
 0.0027613571     1     2    15    13
 -0.0006142521     1     2    15    15
 0.1365049834     1     2    16     1
 0.0004032644     1     2    16     3
 -0.0082862739     1     2    16     5
 -0.0063985799     1     2    16     6
 -0.0010210537     1     2    16     7
 0.0020959456     1     2    16     8
 -0.0008561906     1     2    16     9
 0.0023628592     1     2    16    10
 0.0023483354     1     2    16    12
 0.0057229475     1     2    16    14
 -0.0038671823     1     2    16    16
 0.0556322324     1     3     2     1
 0.0061067147     1     3     2     2
 0.0006110121     1     3     2     5
 -0.0009303751     1     3     2     6
 -0.0005932286     1     3     2     7
 0.0003340519     1     3     2     8
 -0.0001113920     1     3     2     9
 -0.0040360485     1     3     2    10
 0.0008572630     1     3     2    12
 0.0009323569     1     3     2    14
 -0.0012429507     1     3     2    16
 -0.8973960975     1     3     3     1
 0.0334760686     1     3     3     2
 0.0027190102     1     3     3     5
 -0.0037022094     1     3     3     6
 0.0049355832     1     3     3     7
 0.0010146057     1     3     3     8
 0.0003613390     1     3     3     9
 0.0017656693     1     3     3    10
 0.0017468326     1     3     3    12
 -0.0055663939     1     3     3    14
 -0.0076017234     1     3     3    16
 0.0117560587     1     3     4     4
 0.0052134896     1     3     4    11
 0.0033020543     1     3     4    13
 -0.0043874380     1     3     4    15
 0.0756966024     1     3     5     1
 -0.0039072420     1     3     5     2
 0.0060672095     1     3     5     5
 0.0065122128     1     3     5     6
 0.0005284359     1     3     5     7
 -0.0027047121     1     3     5     8
 -0.0004481998     1     3     5     9
 -0.0017827014     1     3     5    10
 -0.0002325183     1     3     5    12
 -0.0037052646     1     3     5    14
 0.0050398861     1     3     5    16
 -0.0710074636     1     3     6     1
 0.0023993972     1     3     6     2
 0.0050602429     1     3     6     5
 0.0027122891     1     3     6     6
 0.0005494929     1     3     6     7
 -0.0011791746     1     3     6     8
 0.0006361167     1     3     6     9
 -0.0013900975     1     3     6    10
 -0.0000095768     1     3     6    12
 -0.0027438578     1     3     6    14
 0.0017939876     1     3     6    16
 -0.1323232754     1     3     7     1
 0.0097089023     1     3     7     2
 0.0017774036     1     3     7     5
 -0.0011291202     1     3     7     6
 0.0040318700     1     3     7     7
 0.0002049184     1     3     7     8
 0.0010275144     1     3     7     9
 0.0026986390     1     3     7    10
 0.0003040596     1     3     7    12
 -0.0028718848     1     3     7    14
 -0.0022369923     1     3     7    16
 0.0139116393     1     3     8     1
 -0.0007842461     1     3     8     2
 -0.0015768652     1     3     8     5
 -0.0006256094     1     3     8     6
 -0.0001911190     1     3     8     7
 -0.0004111653     1     3     8     8
 0.0003973695     1     3     8     9
 -0.0002311865     1     3     8    10
 -0.0001432885     1     3     8    12
 0.0004844643     1     3     8    14
 -0.0001165289     1     3     8    16
 0.0099659646     1     3     9     1
 0.0015397054     1     3     9     2
 0.0002535784     1     3     9     5
 0.0009302923     1     3     9     6
 0.0012658568     1     3     9     7
 0.0002212076     1     3     9     8
 0.0002782400     1     3     9     9
 0.0040451088     1     3     9    10
 -0.0007925439     1     3     9    12
 -0.0028467148     1     3     9    14
 0.0005143715     1     3     9    16
 -0.2600785230     1     3    10     1
 0.0182106384     1     3    10     2
 0.0003833202     1     3    10     5
 -0.0043127897     1     3    10     6
 0.0054367096     1     3    10     7
 0.0007695225     1     3    10     8
 0.0043628699     1     3    10     9
 0.0051885748     1     3    10    10
 0.0035552055     1     3    10    12
 -0.0042492280     1     3    10    14
 -0.0063365095     1     3    10    16
 0.0038059929     1     3    11     4
 0.0005796679     1     3    11    11
 0.0017344632     1     3    11    13
 -0.0006726657     1     3    11    15
 0.0518792234     1     3    12     1
 -0.0019111200     1     3    12     2
 -0.0014522875     1     3    12     5
 -0.0011525805     1     3    12     6
 -0.0009096078     1     3    12     7
 0.0004335394     1     3    12     8
 -0.0009201090     1     3    12     9
 0.0025455578     1     3    12    10
 0.0003300633     1     3    12    12
 0.0028003281     1     3    12    14
 -0.0009189770     1     3    12    16
 0.0047293346     1     3    13     4
 0.0029614924     1     3    13    11
 0.0045151199     1     3    13    13
 0.0009695807     1     3    13    15
 0.0673247360     1     3    14     1
 -0.0064091330     1     3    14     2
 -0.0043392413     1     3    14     5
 -0.0016264386     1     3    14     6
 -0.0023182355     1     3    14     7
 0.0006242258     1     3    14     8
 -0.0022090372     1     3    14     9
 -0.0009958903     1     3    14    10
 0.0008901937     1     3    14    12
 0.0049500688     1     3    14    14
 0.0006098650     1     3    14    16
 -0.0009974501     1     3    15     4
 0.0005135099     1     3    15    11
 0.0027324732     1     3    15    13
 0.0010642395     1     3    15    15
 -0.0266567617     1     3    16     1
 -0.0004032644     1     3    16     2
 0.0022356869     1     3    16     5
 0.0015639177     1     3    16     6
 0.0001118794     1     3    16     7
 -0.0003557923     1     3    16     8
 0.0004979517     1     3    16     9
 -0.0007068880     1     3    16    10
 -0.0004621402     1     3    16    12
 -0.0002897963     1     3    16    14
 0.0004901262     1     3    16    16
 -0.0028540389     1     4     2    11
 -0.0040925090     1     4     2    13
 0.0006781888     1     4     2    15
 0.0014074967     1     4     3    11
 -0.0014272803     1     4     3    13
 -0.0033899879     1     4     3    15
 -1.0129588469     1     4     4     1
 0.0435556704     1     4     4     2
 -0.0117560587     1     4     4     3
 0.0051825807     1     4     4     5
 -0.0069082035     1     4     4     6
 0.0052446243     1     4     4     7
 0.0021626436     1     4     4     8
 0.0070260385     1     4     4     9
 0.0004577543     1     4     4    10
 0.0066582970     1     4     4    12
 -0.0075128132     1     4     4    14
 -0.0097056182     1     4     4    16
 0.0014169968     1     4     5    11
 -0.0010265552     1     4     5    13
 0.0014721720     1     4     5    15
 -0.0001836724     1     4     6    11
 -0.0006015730     1     4     6    13
 0.0002056801     1     4     6    15
 0.0009297830     1     4     7    11
 0.0012269792     1     4     7    13
 -0.0004790524     1     4     7    15
 -0.0007336569     1     4     8    11
 -0.0003661186     1     4     8    13
 0.0004815170     1     4     8    15
 -0.0005355842     1     4     9    11
 -0.0009060044     1     4     9    13
 0.0003494289     1     4     9    15
 -0.0005340167     1     4    10    11
 -0.0007078307     1     4    10    13
 0.0005094212     1     4    10    15
 -0.2254582950     1     4    11     1
 0.0147576821     1     4    11     2
 -0.0038059929     1     4    11     3
 0.0025597781     1     4    11     5
 -0.0038335943     1     4    11     6
 0.0027988507     1     4    11     7
 0.0004114447     1     4    11     8
 0.0022039298     1     4    11     9
 -0.0003685114     1     4    11    10
 0.0026419039     1     4    11    12
 -0.0022440066     1     4    11    14
 -0.0060908585     1     4    11    16
 -0.0004062433     1     4    12    11
 -0.0005301376     1     4    12    13
 -0.0001697871     1     4    12    15
 -0.2438173785     1     4    13     1
 0.0164053829     1     4    13     2
 -0.0047293346     1     4    13     3
 0.0019155519     1     4    13     5
 -0.0030627308     1     4    13     6
 0.0045219093     1     4    13     7
 0.0003921623     1     4    13     8
 0.0025705930     1     4    13     9
 0.0007595599     1     4    13    10
 0.0022072396     1     4    13    12
 -0.0046853813     1     4    13    14
 -0.0054925805     1     4    13    16
 0.0000324885     1     4    14    11
 -0.0000870098     1     4    14    13
 0.0001881497     1     4    14    15
 0.0727405351     1     4    15     1
 -0.0048733123     1     4    15     2
 0.0009974501     1     4    15     3
 -0.0004674037     1     4    15     5
 0.0007174542     1     4    15     6
 -0.0004212394     1     4    15     7
 0.0003190342     1     4    15     8
 -0.0005994391     1     4    15     9
 0.0025225279     1     4    15    10
 -0.0010622794     1     4    15    12
 0.0011635892     1     4    15    14
 0.0014637325     1     4    15    16
 -0.0016595886     1     4    16    11
 -0.0012276841     1     4    16    13
 0.0005243161     1     4    16    15
 -0.0584940550     1     5     2     1
 -0.0007845467     1     5     2     2
 -0.0006110121     1     5     2     3
 -0.0009088185     1     5     2     6
 -0.0004674834     1     5     2     7
 0.0005323766     1     5     2     8
 -0.0005675960     1     5     2     9
 0.0010964487     1     5     2    10
 0.0014313208     1     5     2    12
 0.0033662823     1     5     2    14
 -0.0017780766     1     5     2    16
 0.0756966024     1     5     3     1
 -0.0045182541     1     5     3     2
 -0.0027190102     1     5     3     3
 0.0014519699     1     5     3     6
 -0.0012489677     1     5     3     7
 -0.0011278469     1     5     3     8
 -0.0007017782     1     5     3     9
 -0.0021660216     1     5     3    10
 0.0012197692     1     5     3    12
 0.0006339767     1     5     3    14
 0.0028041992     1     5     3    16
 -0.0051825807     1     5     4     4
 -0.0011427813     1     5     4    11
 -0.0029421071     1     5     4    13
 0.0019395757     1     5     4    15
 -0.7358871609     1     5     5     1
 0.0249160213     1     5     5     2
 -0.0060672095     1     5     5     3
 -0.0031099313     1     5     5     6
 0.0033150479     1     5     5     7
 -0.0001662406     1     5     5     8
 0.0042552403     1     5     5     9
 0.0015681775     1     5     5    10
 0.0022935214     1     5     5    12
 -0.0020697340     1     5     5    14
 -0.0048488589     1     5     5    16
 -0.2953127903     1     5     6     1
 0.0170744492     1     5     6     2
 -0.0050602429     1     5     6     3
 -0.0062160509     1     5     6     6
 0.0013622183     1     5     6     7
 0.0015325275     1     5     6     8
 0.0023873966     1     5     6     9
 0.0008854267     1     5     6    10
 0.0032175061     1     5     6    12
 0.0005606111     1     5     6    14
 -0.0049568299     1     5     6    16
 -0.0505230943     1     5     7     1
 0.0018231686     1     5     7     2
 -0.0017774036     1     5     7     3
 -0.0009134416     1     5     7     6
 -0.0002891404     1     5     7     7
 0.0003290683     1     5     7     8
 0.0004039573     1     5     7     9
 -0.0012579288     1     5     7    10
 0.0003582902     1     5     7    12
 -0.0003399194     1     5     7    14
 -0.0001296055     1     5     7    16
 0.0685044727     1     5     8     1
 -0.0051337392     1     5     8     2
 0.0015768652     1     5     8     3
 0.0025370749     1     5     8     6
 -0.0000227292     1     5     8     7
 -0.0021833682     1     5     8     8
 -0.0009240001     1     5     8     9
 0.0002368946     1     5     8    10
 -0.0015403240     1     5     8    12
 -0.0005797256     1     5     8    14
 0.0021438454     1     5     8    16
 -0.0462218052     1     5     9     1
 0.0022224298     1     5     9     2
 -0.0002535784     1     5     9     3
 -0.0009170224     1     5     9     6
 0.0005482621     1     5     9     7
 -0.0000333462     1     5     9     8
 -0.0008105463     1     5     9     9
 0.0007961310     1     5     9    10
 0.0017659518     1     5     9    12
 0.0002332200     1     5     9    14
 -0.0010319380     1     5     9    16
 0.1154323867     1     5    10     1
 -0.0076307477     1     5    10     2
 -0.0003833202     1     5    10     3
 0.0017343711     1     5    10     6
 -0.0024718222     1     5    10     7
 -0.0001290051     1     5    10     8
 -0.0011818008     1     5    10     9
 -0.0015210587     1     5    10    10
 -0.0012668449     1     5    10    12
 0.0028623563     1     5    10    14
 0.0022046146     1     5    10    16
 -0.0025597781     1     5    11     4
 -0.0031318718     1     5    11    11
 -0.0007317837     1     5    11    13
 -0.0001725673     1     5    11    15
 0.0676063817     1     5    12     1
 -0.0052736933     1     5    12     2
 0.0014522875     1     5    12     3
 0.0018929985     1     5    12     6
 -0.0013777886     1     5    12     7
 -0.0007140520     1     5    12     8
 0.0003355614     1     5    12     9
 -0.0020187274     1     5    12    10
 -0.0015059477     1     5    12    12
 0.0005673000     1     5    12    14
 0.0026554257     1     5    12    16
 -0.0019155519     1     5    13     4
 0.0003310493     1     5    13    11
 -0.0011390247     1     5    13    13
 0.0001970117     1     5    13    15
 0.2071597453     1     5    14     1
 -0.0124953934     1     5    14     2
 0.0043392413     1     5    14     3
 0.0036653603     1     5    14     6
 -0.0023863664     1     5    14     7
 -0.0005783763     1     5    14     8
 -0.0021191701     1     5    14     9
 0.0010198930     1     5    14    10
 -0.0020657443     1     5    14    12
 0.0029795402     1     5    14    14
 0.0043045395     1     5    14    16
 0.0004674037     1     5    15     4
 -0.0009592518     1     5    15    11
 -0.0003442577     1     5    15    13
 0.0000044500     1     5    15    15
 -0.0887430311     1     5    16     1
 0.0082862739     1     5    16     2
 -0.0022356869     1     5    16     3
 -0.0029884729     1     5    16     6
 0.0011380174     1     5    16     7
 0.0009926982     1     5    16     8
 0.0011707382     1     5    16     9
 0.0000567275     1     5    16    10
 0.0026122497     1     5    16    12
 0.0008264682     1     5    16    14
 -0.0052835876     1     5    16    16
 0.0911171209     1     6     2     1
 0.0003870284     1     6     2     2
 0.0009303751     1     6     2     3
 0.0009088185     1     6     2     5
 0.0001444645     1     6     2     7
 0.0001871224     1     6     2     8
 -0.0002677612     1     6     2     9
 0.0008306067     1     6     2    10
 0.0008775404     1     6     2    12
 0.0017078954     1     6     2    14
 -0.0012073196     1     6     2    16
 -0.0710074636     1     6     3     1
 0.0033297723     1     6     3     2
 0.0037022094     1     6     3     3
 -0.0014519699     1     6     3     5
 0.0016786131     1     6     3     7
 -0.0005535652     1     6     3     8
 -0.0002941756     1     6     3     9
 0.0029226922     1     6     3    10
 0.0011430037     1     6     3    12
 -0.0011174192     1     6     3    14
 0.0002300699     1     6     3    16
 0.0069082035     1     6     4     4
 0.0036499219     1     6     4    11
 0.0024611578     1     6     4    13
 -0.0005117741     1     6     4    15
 -0.2953127903     1     6     5     1
 0.0179832677     1     6     5     2
 -0.0065122128     1     6     5     3
 0.0031099313     1     6     5     5
 0.0022756599     1     6     5     7
 -0.0010045474     1     6     5     8
 0.0033044190     1     6     5     9
 -0.0008489444     1     6     5    10
 0.0013245076     1     6     5    12
 -0.0031047492     1     6     5    14
 -0.0019683570     1     6     5    16
 -0.5010543069     1     6     6     1
 0.0137186304     1     6     6     2
 -0.0027122891     1     6     6     3
 0.0062160509     1     6     6     5
 0.0023136754     1     6     6     7
 -0.0003977244     1     6     6     8
 0.0026205335     1     6     6     9
 -0.0001732037     1     6     6    10
 0.0008615860     1     6     6    12
 -0.0040644129     1     6     6    14
 -0.0011855164     1     6     6    16
 -0.0292672624     1     6     7     1
 0.0034382306     1     6     7     2
 0.0011291202     1     6     7     3
 0.0009134416     1     6     7     5
 0.0014262704     1     6     7     7
 -0.0000036913     1     6     7     8
 0.0007181468     1     6     7     9
 0.0009521475     1     6     7    10
 -0.0000986681     1     6     7    12
 -0.0019867124     1     6     7    14
 -0.0001496861     1     6     7    16
 0.1132135593     1     6     8     1
 -0.0041868052     1     6     8     2
 0.0006256094     1     6     8     3
 -0.0025370749     1     6     8     5
 -0.0005794866     1     6     8     7
 -0.0011338857     1     6     8     8
 -0.0009291168     1     6     8     9
 0.0003392430     1     6     8    10
 -0.0005064883     1     6     8    12
 0.0013754008     1     6     8    14
 0.0006461816     1     6     8    16
 -0.0067332983     1     6     9     1
 0.0018102775     1     6     9     2
 -0.0009302923     1     6     9     3
 0.0009170224     1     6     9     5
 0.0005058598     1     6     9     7
 -0.0001571224     1     6     9     8
 -0.0005207565     1     6     9     9
 0.0006204059     1     6     9    10
 0.0010359987     1     6     9    12
 -0.0006656462     1     6     9    14
 -0.0003622969     1     6     9    16
 0.0334851256     1     6    10     1
 -0.0019276497     1     6    10     2
 0.0043127897     1     6    10     3
 -0.0017343711     1     6    10     5
 0.0004123542     1     6    10     7
 0.0002045883     1     6    10     8
 -0.0000511003     1     6    10     9
 0.0031512678     1     6    10    10
 -0.0003377741     1     6    10    12
 0.0011476593     1     6    10    14
 -0.0000061828     1     6    10    16
 0.0038335943     1     6    11     4
 -0.0002004725     1     6    11    11
 0.0020896949     1     6    11    13
 -0.0009335701     1     6    11    15
 0.0932232559     1     6    12     1
 -0.0043939253     1     6    12     2
 0.0011525805     1     6    12     3
 -0.0018929985     1     6    12     5
 -0.0014301189     1     6    12     7
 -0.0000640669     1     6    12     8
 -0.0000997856     1     6    12     9
 -0.0006627415     1     6    12    10
 -0.0006418199     1     6    12    12
 0.0020238228     1     6    12    14
 0.0011618718     1     6    12    16
 0.0030627308     1     6    13     4
 0.0022656192     1     6    13    11
 0.0016268407     1     6    13    13
 -0.0002068854     1     6    13    15
 0.1421184592     1     6    14     1
 -0.0108848007     1     6    14     2
 0.0016264386     1     6    14     3
 -0.0036653603     1     6    14     5
 -0.0032322592     1     6    14     7
 0.0004825801     1     6    14     8
 -0.0024469132     1     6    14     9
 0.0002457191     1     6    14    10
 -0.0004428417     1     6    14    12
 0.0056837619     1     6    14    14
 0.0020784714     1     6    14    16
 -0.0007174542     1     6    15     4
 -0.0010027024     1     6    15    11
 -0.0002211101     1     6    15    13
 0.0003040709     1     6    15    15
 -0.1611119064     1     6    16     1
 0.0063985799     1     6    16     2
 -0.0015639177     1     6    16     3
 0.0029884729     1     6    16     5
 0.0013159143     1     6    16     7
 0.0000433062     1     6    16     8
 0.0012881743     1     6    16     9
 -0.0006306245     1     6    16    10
 0.0011668363     1     6    16    12
 -0.0012605137     1     6    16    14
 -0.0027968961     1     6    16    16
 -0.1075573275     1     7     2     1
 0.0024025176     1     7     2     2
 0.0005932286     1     7     2     3
 0.0004674834     1     7     2     5
 -0.0001444645     1     7     2     6
 0.0000930369     1     7     2     8
 -0.0000497772     1     7     2     9
 -0.0008814900     1     7     2    10
 0.0003584731     1     7     2    12
 0.0004331130     1     7     2    14
 -0.0005355057     1     7     2    16