&FCI NORB=  7,NELEC=  6,MS2=0,
 ORBSYM=1,1,1,1,1,1,1
 ISYM=1,
&END
 0.2006527613     1     1     2     2
 -0.0264052393     1     1     2     4
 -0.0012353258     1     1     2     6
 0.2427081387     1     1     3     3
 0.0370743739     1     1     3     5
 -0.0094371415     1     1     3     7
 -0.0264052393     1     1     4     2
 0.2410812257     1     1     4     4
 -0.0521219415     1     1     4     6
 0.0370743739     1     1     5     3
 0.1855894361     1     1     5     5
 0.0020720880     1     1     5     7
 -0.0012353258     1     1     6     2
 -0.0521219415     1     1     6     4
 0.1877504356     1     1     6     6
 -0.0094371415     1     1     7     3
 0.0020720880     1     1     7     5
 0.2381315208     1     1     7     7
 -0.2006527613     1     2     2     1
 0.0671099077     1     2     2     3
 0.0045707702     1     2     2     5
 -0.0100032267     1     2     2     7
 0.0556325632     1     2     3     4
 -0.0264830242     1     2     3     6
 0.0264052393     1     2     4     1
 0.0198950364     1     2     4     3
 -0.0448320551     1     2     4     5
 0.0136105900     1     2     4     7
 -0.0322246973     1     2     5     4
 -0.0353118452     1     2     5     6
 0.0012353258     1     2     6     1
 -0.0171964250     1     2     6     3
 -0.0287762034     1     2     6     5
 -0.0170642514     1     2     6     7
 0.0074852996     1     2     7     4
 -0.0156097840     1     2     7     6
 -0.0671099077     1     3     2     2
 0.0366384091     1     3     2     4
 -0.0095396716     1     3     2     6
 -0.2427081387     1     3     3     1
 -0.0267180811     1     3     3     5
 -0.0063887079     1     3     3     7
 -0.0198950364     1     3     4     2
 -0.0060206627     1     3     4     4
 0.0178010193     1     3     4     6
 -0.0370743739     1     3     5     1
 0.0042913836     1     3     5     5
 -0.0065257020     1     3     5     7
 0.0171964250     1     3     6     2
 0.0057475310     1     3     6     4
 0.0020270435     1     3     6     6
 -0.0000000001     1     3     6     7
 0.0094371415     1     3     7     1
 -0.0024590847     1     3     7     5
 -0.0252292582     1     3     7     7
 0.0264052393     1     4     2     1
 -0.0366384091     1     4     2     3
 -0.0130493985     1     4     2     5
 0.0064022139     1     4     2     7
 -0.0556325632     1     4     3     2
 0.0121302220     1     4     3     6
 -0.2410812257     1     4     4     1
 0.0060206627     1     4     4     3
 -0.0052139230     1     4     4     5
 -0.0147101380     1     4     4     7
 0.0322246973     1     4     5     2
 -0.0030102133     1     4     5     6
 0.0521219415     1     4     6     1
 -0.0057475310     1     4     6     3
 0.0030789944     1     4     6     5
 0.0100618142     1     4     6     7
 -0.0074852996     1     4     7     2
 0.0052588189     1     4     7     6
 -0.0000000001     1     4     7     7
 -0.0045707702     1     5     2     2
 0.0130493985     1     5     2     4
 -0.0070836226     1     5     2     6
 -0.0370743739     1     5     3     1
 0.0267180811     1     5     3     3
 -0.0044982987     1     5     3     7
 0.0448320551     1     5     4     2
 0.0052139230     1     5     4     4
 -0.0061480211     1     5     4     6
 -0.1855894361     1     5     5     1
 -0.0042913836     1     5     5     3
 -0.0077888354     1     5     5     7
 0.0287762034     1     5     6     2
 -0.0030789944     1     5     6     4
 0.0025972243     1     5     6     6
 -0.0020720880     1     5     7     1
 0.0024590847     1     5     7     3
 0.0000000001     1     5     7     6
 0.0044490729     1     5     7     7
 0.0012353258     1     6     2     1
 0.0095396716     1     6     2     3
 0.0070836226     1     6     2     5
 -0.0015881897     1     6     2     7
 0.0264830242     1     6     3     2
 -0.0121302220     1     6     3     4
 0.0521219415     1     6     4     1
 -0.0178010193     1     6     4     3
 0.0061480211     1     6     4     5
 0.0048099797     1     6     4     7
 0.0353118452     1     6     5     2
 0.0030102133     1     6     5     4
 -0.0000000001     1     6     5     7
 -0.1877504356     1     6     6     1
 -0.0020270435     1     6     6     3
 -0.0025972243     1     6     6     5
 -0.0073006996     1     6     6     7
 0.0156097840     1     6     7     2
 -0.0052588189     1     6     7     4
 -0.0000000001     1     6     7     5
 0.0100032267     1     7     2     2
 -0.0064022139     1     7     2     4
 0.0015881897     1     7     2     6
 0.0094371415     1     7     3     1
 0.0063887079     1     7     3     3
 0.0044982987     1     7     3     5
 -0.0136105900     1     7     4     2
 0.0147101380     1     7     4     4
 -0.0048099797     1     7     4     6
 -0.0020720880     1     7     5     1
 0.0065257020     1     7     5     3
 0.0077888354     1     7     5     5
 0.0000000001     1     7     5     6
 0.0170642514     1     7     6     2
 0.0000000001     1     7     6     3
 -0.0100618142     1     7     6     4
 0.0073006996     1     7     6     6
 -0.2381315208     1     7     7     1
 0.0252292582     1     7     7     3
 0.0000000001     1     7     7     4
 -0.0044490729     1     7     7     5
 -0.2006527613     2     1     1     2
 0.0264052393     2     1     1     4
 0.0012353258     2     1     1     6
 0.0671099077     2     1     3     2
 0.0198950364     2     1     3     4
 -0.0171964250     2     1     3     6
 0.0556325632     2     1     4     3
 -0.0322246973     2     1     4     5
 0.0074852996     2     1     4     7
 0.0045707702     2     1     5     2
 -0.0448320551     2     1     5     4
 -0.0287762034     2     1     5     6
 -0.0264830242     2     1     6     3
 -0.0353118452     2     1     6     5
 -0.0156097840     2     1     6     7
 -0.0100032267     2     1     7     2
 0.0136105900     2     1     7     4
 -0.0170642514     2     1     7     6
 0.2006527613     2     2     1     1
 -0.0671099077     2     2     1     3
 -0.0045707702     2     2     1     5
 0.0100032267     2     2     1     7
 -0.0671099077     2     2     3     1
 0.2023711004     2     2     3     3
 0.0135624038     2     2     3     5
 -0.0106024912     2     2     3     7
 0.2228916833     2     2     4     4
 -0.0343269113     2     2     4     6
 -0.0045707702     2     2     5     1
 0.0135624038     2     2     5     3
 0.1882300333     2     2     5     5
 -0.0008846272     2     2     5     7
 -0.0343269113     2     2     6     4
 0.1876960117     2     2     6     6
 0.0100032267     2     2     7     1
 -0.0106024912     2     2     7     3
 -0.0008846272     2     2     7     5
 0.2109576915     2     2     7     7
 0.0671099077     2     3     1     2
 -0.0366384091     2     3     1     4
 0.0095396716     2     3     1     6
 -0.2023711004     2     3     3     2
 0.0729844150     2     3     3     4
 -0.0168886796     2     3     3     6
 -0.0556325632     2     3     4     1
 -0.0551737477     2     3     4     5
 0.0060621164     2     3     4     7
 -0.0135624038     2     3     5     2
 -0.0288481667     2     3     5     4
 -0.0417149274     2     3     5     6
 0.0264830242     2     3     6     1
 -0.0283476304     2     3     6     5
 0.0000000001     2     3     6     6
 -0.0117619753     2     3     6     7
 0.0106024912     2     3     7     2
 0.0002808069     2     3     7     4
 -0.0103746856     2     3     7     6
 -0.0264052393     2     4     1     1
 0.0366384091     2     4     1     3
 0.0130493985     2     4     1     5
 -0.0064022139     2     4     1     7
 -0.0198950364     2     4     3     1
 -0.0729844150     2     4     3     3
 -0.0278991815     2     4     3     5
 0.0054034845     2     4     3     7
 -0.2228916833     2     4     4     2
 0.0278220935     2     4     4     6
 0.0448320551     2     4     5     1
 0.0288481667     2     4     5     3
 0.0049588394     2     4     5     5
 0.0022997665     2     4     5     7
 0.0343269113     2     4     6     2
 -0.0013473945     2     4     6     6
 -0.0000000001     2     4     6     7
 -0.0136105900     2     4     7     1
 -0.0002808069     2     4     7     3
 -0.0012222034     2     4     7     5
 -0.0289768613     2     4     7     7
 0.0045707702     2     5     1     2
 -0.0130493985     2     5     1     4
 0.0070836226     2     5     1     6
 -0.0135624038     2     5     3     2
 0.0278991815     2     5     3     4
 -0.0142932026     2     5     3     6
 -0.0000000001     2     5     3     7
 0.0322246973     2     5     4     1
 0.0551737477     2     5     4     3
 0.0035029347     2     5     4     7
 -0.1882300333     2     5     5     2
 -0.0049588394     2     5     5     4
 0.0115536816     2     5     5     6
 0.0353118452     2     5     6     1
 0.0283476304     2     5     6     3
 -0.0000000001     2     5     6     6
 -0.0003214384     2     5     6     7
 0.0008846272     2     5     7     2
 0.0012222034     2     5     7     4
 -0.0039075837     2     5     7     6
 0.0000000001     2     5     7     7
 -0.0012353258     2     6     1     1
 -0.0095396716     2     6     1     3
 -0.0070836226     2     6     1     5
 0.0015881897     2     6     1     7
 0.0171964250     2     6     3     1
 0.0168886796     2     6     3     3
 0.0142932026     2     6     3     5
 -0.0013243473     2     6     3     7
 0.0343269113     2     6     4     2
 -0.0278220935     2     6     4     4
 -0.0000000001     2     6     4     7
 0.0287762034     2     6     5     1
 0.0417149274     2     6     5     3
 -0.0115536816     2     6     5     5
 0.0036354595     2     6     5     7
 -0.1876960117     2     6     6     2
 -0.0000000001     2     6     6     3
 0.0013473945     2     6     6     4
 0.0000000001     2     6     6     5
 -0.0000000004     2     6     6     7
 0.0170642514     2     6     7     1
 0.0103746856     2     6     7     3
 0.0039075837     2     6     7     5
 0.0015266235     2     6     7     7
 -0.0100032267     2     7     1     2
 0.0064022139     2     7     1     4
 -0.0015881897     2     7     1     6
 0.0106024912     2     7     3     2
 -0.0054034845     2     7     3     4
 0.0000000001     2     7     3     5
 0.0013243473     2     7     3     6
 -0.0074852996     2     7     4     1
 -0.0060621164     2     7     4     3
 -0.0035029347     2     7     4     5
 0.0000000001     2     7     4     6
 0.0008846272     2     7     5     2
 -0.0022997665     2     7     5     4
 -0.0036354595     2     7     5     6
 0.0156097840     2     7     6     1
 0.0117619753     2     7     6     3
 0.0000000001     2     7     6     4
 0.0003214384     2     7     6     5
 0.0000000004     2     7     6     6
 -0.2109576915     2     7     7     2
 0.0289768613     2     7     7     4
 -0.0000000001     2     7     7     5
 -0.0015266235     2     7     7     6
 -0.2427081387     3     1     1     3
 -0.0370743739     3     1     1     5
 0.0094371415     3     1     1     7
 -0.0671099077     3     1     2     2
 -0.0198950364     3     1     2     4
 0.0171964250     3     1     2     6
 0.0366384091     3     1     4     2
 -0.0060206627     3     1     4     4
 0.0057475310     3     1     4     6
 -0.0267180811     3     1     5     3
 0.0042913836     3     1     5     5
 -0.0024590847     3     1     5     7
 -0.0095396716     3     1     6     2
 0.0178010193     3     1     6     4
 0.0020270435     3     1     6     6
 -0.0063887079     3     1     7     3
 -0.0065257020     3     1     7     5
 -0.0000000001     3     1     7     6
 -0.0252292582     3     1     7     7
 -0.0556325632     3     2     1     4
 0.0264830242     3     2     1     6
 0.0671099077     3     2     2     1
 -0.2023711004     3     2     2     3
 -0.0135624038     3     2     2     5
 0.0106024912     3     2     2     7
 -0.0366384091     3     2     4     1
 0.0729844150     3     2     4     3
 -0.0288481667     3     2     4     5
 0.0002808069     3     2     4     7
 -0.0551737477     3     2     5     4
 -0.0283476304     3     2     5     6
 0.0095396716     3     2     6     1
 -0.0168886796     3     2     6     3
 -0.0417149274     3     2     6     5
 0.0000000001     3     2     6     6
 -0.0103746856     3     2     6     7
 0.0060621164     3     2     7     4
 -0.0117619753     3     2     7     6
 0.2427081387     3     3     1     1
 0.0267180811     3     3     1     5
 0.0063887079     3     3     1     7
 0.2023711004     3     3     2     2
 -0.0729844150     3     3     2     4
 0.0168886796     3     3     2     6
 -0.0729844150     3     3     4     2
 0.2160743265     3     3     4     4
 -0.0254315363     3     3     4     6
 0.0267180811     3     3     5     1
 0.1835496253     3     3     5     5
 0.0053701440     3     3     5     7
 0.0168886796     3     3     6     2
 -0.0254315363     3     3     6     4
 0.1804918048     3     3     6     6
 0.0063887079     3     3     7     1
 0.0053701440     3     3     7     5
 0.2114041649     3     3     7     7
 0.0556325632     3     4     1     2
 -0.0121302220     3     4     1     6
 0.0198950364     3     4     2     1
 0.0729844150     3     4     2     3
 0.0278991815     3     4     2     5
 -0.0054034845     3     4     2     7
 0.0060206627     3     4     4     1
 -0.2160743265     3     4     4     3
 -0.0618075619     3     4     4     5
 0.0000000001     3     4     4     6
 0.0146777080     3     4     4     7
 0.0551737477     3     4     5     2
 -0.0496696529     3     4     5     6
 -0.0178010193     3     4     6     1
 0.0254315363     3     4     6     3
 -0.0165268735     3     4     6     5
 0.0000000004     3     4     6     6
 -0.0156038813     3     4     6     7
 -0.0060621164     3     4     7     2
 -0.0070859476     3     4     7     6
 0.0370743739     3     5     1     1
 -0.0267180811     3     5     1     3
 0.0044982987     3     5     1     7
 0.0135624038     3     5     2     2
 -0.0278991815     3     5     2     4
 0.0142932026     3     5     2     6
 0.0000000001     3     5     2     7
 0.0288481667     3     5     4     2
 0.0618075619     3     5     4     4
 -0.0333334919     3     5     4     6
 -0.0042913836     3     5     5     1
 -0.1835496253     3     5     5     3
 0.0000000002     3     5     5     6
 0.0011843129     3     5     5     7
 0.0417149274     3     5     6     2
 0.0165268735     3     5     6     4
 -0.0050455596     3     5     6     6
 -0.0000000001     3     5     6     7
 0.0065257020     3     5     7     1
 -0.0053701440     3     5     7     3
 -0.0000000003     3     5     7     6
 0.0252529770     3     5     7     7
 -0.0264830242     3     6     1     2
 0.0121302220     3     6     1     4
 -0.0171964250     3     6     2     1
 -0.0168886796     3     6     2     3
 -0.0142932026     3     6     2     5
 0.0013243473     3     6     2     7
 -0.0057475310     3     6     4     1
 0.0254315363     3     6     4     3
 -0.0000000001     3     6     4     4
 0.0333334919     3     6     4     5
 -0.0085935027     3     6     4     7
 0.0283476304     3     6     5     2
 0.0496696529     3     6     5     4
 -0.0000000002     3     6     5     5
 0.0000000002     3     6     5     7
 -0.0020270435     3     6     6     1
 -0.0000000001     3     6     6     2
 -0.1804918048     3     6     6     3
 -0.0000000004     3     6     6     4
 0.0050455596     3     6     6     5
 0.0060948141     3     6     6     7
 0.0000000001     3     6     7     1
 0.0117619753     3     6     7     2
 0.0070859476     3     6     7     4
 0.0000000003     3     6     7     5
 -0.0000000005     3     6     7     7
 -0.0094371415     3     7     1     1
 -0.0063887079     3     7     1     3
 -0.0044982987     3     7     1     5
 -0.0106024912     3     7     2     2
 0.0054034845     3     7     2     4
 -0.0000000001     3     7     2     5
 -0.0013243473     3     7     2     6
 -0.0002808069     3     7     4     2
 -0.0146777080     3     7     4     4
 0.0085935027     3     7     4     6
 0.0024590847     3     7     5     1
 -0.0053701440     3     7     5     3
 -0.0011843129     3     7     5     5
 -0.0000000002     3     7     5     6
 0.0103746856     3     7     6     2
 0.0156038813     3     7     6     4
 0.0000000001     3     7     6     5
 -0.0060948141     3     7     6     6
 0.0252292582     3     7     7     1
 -0.2114041649     3     7     7     3
 -0.0252529770     3     7     7     5
 0.0000000005     3     7     7     6
 0.0264052393     4     1     1     2
 -0.2410812257     4     1     1     4
 0.0521219415     4     1     1     6
 -0.0556325632     4     1     2     3
 0.0322246973     4     1     2     5
 -0.0074852996     4     1     2     7
 -0.0366384091     4     1     3     2
 0.0060206627     4     1     3     4
 -0.0057475310     4     1     3     6
 -0.0130493985     4     1     5     2
 -0.0052139230     4     1     5     4
 0.0030789944     4     1     5     6
 0.0121302220     4     1     6     3
 -0.0030102133     4     1     6     5
 0.0052588189     4     1     6     7
 0.0064022139     4     1     7     2
 -0.0147101380     4     1     7     4
 0.0100618142     4     1     7     6
 -0.0000000001     4     1     7     7
 -0.0264052393     4     2     1     1
 -0.0198950364     4     2     1     3
 0.0448320551     4     2     1     5
 -0.0136105900     4     2     1     7
 -0.2228916833     4     2     2     4
 0.0343269113     4     2     2     6
 0.0366384091     4     2     3     1
 -0.0729844150     4     2     3     3
 0.0288481667     4     2     3     5
 -0.0002808069     4     2     3     7
 0.0130493985     4     2     5     1
 -0.0278991815     4     2     5     3
 0.0049588394     4     2     5     5
 -0.0012222034     4     2     5     7
 0.0278220935     4     2     6     4
 -0.0013473945     4     2     6     6
 -0.0064022139     4     2     7     1
 0.0054034845     4     2     7     3
 0.0022997665     4     2     7     5
 -0.0000000001     4     2     7     6
 -0.0289768613     4     2     7     7
 0.0198950364     4     3     1     2
 0.0060206627     4     3     1     4
 -0.0178010193     4     3     1     6
 0.0556325632     4     3     2     1
 0.0551737477     4     3     2     5
 -0.0060621164     4     3     2     7
 0.0729844150     4     3     3     2
 -0.2160743265     4     3     3     4
 0.0254315363     4     3     3     6
 0.0278991815     4     3     5     2
 -0.0618075619     4     3     5     4
 -0.0165268735     4     3     5     6
 -0.0121302220     4     3     6     1
 0.0000000001     4     3     6     4
 -0.0496696529     4     3     6     5
 0.0000000004     4     3     6     6
 -0.0070859476     4     3     6     7
 -0.0054034845     4     3     7     2
 0.0146777080     4     3     7     4
 -0.0156038813     4     3     7     6
 0.2410812257     4     4     1     1
 -0.0060206627     4     4     1     3
 0.0052139230     4     4     1     5
 0.0147101380     4     4     1     7
 0.2228916833     4     4     2     2
 -0.0278220935     4     4     2     6
 -0.0060206627     4     4     3     1
 0.2160743265     4     4     3     3
 0.0618075619     4     4     3     5
 -0.0000000001     4     4     3     6
 -0.0146777080     4     4     3     7
 0.0052139230     4     4     5     1
 0.0618075619     4     4     5     3
 0.1492589594     4     4     5     5
 0.0067742987     4     4     5     7
 -0.0278220935     4     4     6     2
 -0.0000000001     4     4     6     3
 0.1691134602     4     4     6     6
 0.0000000003     4     4     6     7
 0.0147101380     4     4     7     1
 -0.0146777080     4     4     7     3
 0.0067742987     4     4     7     5
 0.0000000003     4     4     7     6
 0.1958921539     4     4     7     7
 -0.0448320551     4     5     1     2
 -0.0052139230     4     5     1     4
 0.0061480211     4     5     1     6
 -0.0322246973     4     5     2     1
 -0.0551737477     4     5     2     3
 -0.0035029347     4     5     2     7
 -0.0288481667     4     5     3     2
 -0.0618075619     4     5     3     4
 0.0333334919     4     5     3     6
 -0.0049588394     4     5     5     2
 -0.1492589594     4     5     5     4
 0.0519341156     4     5     5     6
 0.0000000002     4     5     5     7
 0.0030102133     4     5     6     1
 0.0496696529     4     5     6     3
 0.0000000005     4     5     6     6
 0.0176849195     4     5     6     7
 -0.0022997665     4     5     7     2
 -0.0067742987     4     5     7     4
 0.0110432100     4     5     7     6
 -0.0000000003     4     5     7     7
 -0.0521219415     4     6     1     1
 0.0178010193     4     6     1     3
 -0.0061480211     4     6     1     5
 -0.0048099797     4     6     1     7
 -0.0343269113     4     6     2     2
 0.0278220935     4     6     2     4
 0.0000000001     4     6     2     7
 0.0057475310     4     6     3     1
 -0.0254315363     4     6     3     3
 0.0000000001     4     6     3     4
 -0.0333334919     4     6     3     5
 0.0085935027     4     6     3     7
 -0.0030789944     4     6     5     1
 0.0165268735     4     6     5     3
 -0.0519341156     4     6     5     5
 0.0066417095     4     6     5     7
 0.0013473945     4     6     6     2
 -0.0000000004     4     6     6     3
 -0.1691134602     4     6     6     4
 -0.0000000005     4     6     6     5
 0.0000000015     4     6     6     7
 -0.0100618142     4     6     7     1
 0.0000000001     4     6     7     2
 0.0156038813     4     6     7     3
 -0.0000000003     4     6     7     4
 -0.0110432100     4     6     7     5
 -0.0312806379     4     6     7     7
 0.0136105900     4     7     1     2
 -0.0147101380     4     7     1     4
 0.0048099797     4     7     1     6
 0.0074852996     4     7     2     1
 0.0060621164     4     7     2     3
 0.0035029347     4     7     2     5
 -0.0000000001     4     7     2     6
 0.0002808069     4     7     3     2
 0.0146777080     4     7     3     4
 -0.0085935027     4     7     3     6
 0.0012222034     4     7     5     2
 -0.0067742987     4     7     5     4
 -0.0000000002     4     7     5     5
 -0.0066417095     4     7     5     6
 -0.0052588189     4     7     6     1
 0.0070859476     4     7     6     3
 -0.0000000003     4     7     6     4
 -0.0176849195     4     7     6     5
 -0.0000000015     4     7     6     6
 0.0000000001     4     7     7     1
 0.0289768613     4     7     7     2
 -0.1958921539     4     7     7     4
 0.0000000003     4     7     7     5
 0.0312806379     4     7     7     6
 -0.0370743739     5     1     1     3
 -0.1855894361     5     1     1     5
 -0.0020720880     5     1     1     7
 -0.0045707702     5     1     2     2
 0.0448320551     5     1     2     4
 0.0287762034     5     1     2     6
 0.0267180811     5     1     3     3
 -0.0042913836     5     1     3     5
 0.0024590847     5     1     3     7
 0.0130493985     5     1     4     2
 0.0052139230     5     1     4     4
 -0.0030789944     5     1     4     6
 -0.0070836226     5     1     6     2
 -0.0061480211     5     1     6     4
 0.0025972243     5     1     6     6
 0.0000000001     5     1     6     7
 -0.0044982987     5     1     7     3
 -0.0077888354     5     1     7     5
 0.0044490729     5     1     7     7
 0.0322246973     5     2     1     4
 0.0353118452     5     2     1     6
 0.0045707702     5     2     2     1
 -0.0135624038     5     2     2     3
 -0.1882300333     5     2     2     5
 0.0008846272     5     2     2     7
 0.0551737477     5     2     3     4
 0.0283476304     5     2     3     6
 -0.0130493985     5     2     4     1
 0.0278991815     5     2     4     3
 -0.0049588394     5     2     4     5
 0.0012222034     5     2     4     7
 0.0070836226     5     2     6     1
 -0.0142932026     5     2     6     3
 0.0115536816     5     2     6     5
 -0.0000000001     5     2     6     6
 -0.0039075837     5     2     6     7
 -0.0000000001     5     2     7     3
 0.0035029347     5     2     7     4
 -0.0003214384     5     2     7     6
 0.0000000001     5     2     7     7
 0.0370743739     5     3     1     1
 -0.0042913836     5     3     1     5
 0.0065257020     5     3     1     7
 0.0135624038     5     3     2     2
 0.0288481667     5     3     2     4
 0.0417149274     5     3     2     6
 -0.0267180811     5     3     3     1
 -0.1835496253     5     3     3     5
 -0.0053701440     5     3     3     7
 -0.0278991815     5     3     4     2
 0.0618075619     5     3     4     4
 0.0165268735     5     3     4     6
 0.0142932026     5     3     6     2
 -0.0333334919     5     3     6     4
 0.0000000002     5     3     6     5
 -0.0050455596     5     3     6     6
 -0.0000000003     5     3     6     7
 0.0044982987     5     3     7     1
 0.0000000001     5     3     7     2
 0.0011843129     5     3     7     5
 -0.0000000001     5     3     7     6
 0.0252529770     5     3     7     7
 -0.0322246973     5     4     1     2
 0.0030102133     5     4     1     6
 -0.0448320551     5     4     2     1
 -0.0288481667     5     4     2     3
 -0.0049588394     5     4     2     5
 -0.0022997665     5     4     2     7
 -0.0551737477     5     4     3     2
 0.0496696529     5     4     3     6
 -0.0052139230     5     4     4     1
 -0.0618075619     5     4     4     3
 -0.1492589594     5     4     4     5
 -0.0067742987     5     4     4     7
 0.0061480211     5     4     6     1
 0.0333334919     5     4     6     3
 0.0519341156     5     4     6     5
 0.0000000005     5     4     6     6
 0.0110432100     5     4     6     7
 -0.0035029347     5     4     7     2
 0.0000000002     5     4     7     5
 0.0176849195     5     4     7     6
 -0.0000000003     5     4     7     7
 0.1855894361     5     5     1     1
 0.0042913836     5     5     1     3
 0.0077888354     5     5     1     7
 0.1882300333     5     5     2     2
 0.0049588394     5     5     2     4
 -0.0115536816     5     5     2     6
 0.0042913836     5     5     3     1
 0.1835496253     5     5     3     3
 -0.0000000002     5     5     3     6
 -0.0011843129     5     5     3     7
 0.0049588394     5     5     4     2
 0.1492589594     5     5     4     4
 -0.0519341156     5     5     4     6
 -0.0000000002     5     5     4     7
 -0.0115536816     5     5     6     2
 -0.0000000002     5     5     6     3
 -0.0519341156     5     5     6     4
 0.1303290973     5     5     6     6
 -0.0000000007     5     5     6     7
 0.0077888354     5     5     7     1
 -0.0011843129     5     5     7     3
 -0.0000000002     5     5     7     4
 -0.0000000007     5     5     7     6
 0.1568175526     5     5     7     7
 -0.0353118452     5     6     1     2
 -0.0030102133     5     6     1     4
 0.0000000001     5     6     1     7
 -0.0287762034     5     6     2     1
 -0.0417149274     5     6     2     3
 0.0115536816     5     6     2     5
 -0.0036354595     5     6     2     7
 -0.0283476304     5     6     3     2
 -0.0496696529     5     6     3     4
 0.0000000002     5     6     3     5
 -0.0000000002     5     6     3     7
 0.0030789944     5     6     4     1
 -0.0165268735     5     6     4     3
 0.0519341156     5     6     4     5
 -0.0066417095     5     6     4     7
 -0.0025972243     5     6     6     1
 0.0000000001     5     6     6     2
 0.0050455596     5     6     6     3
 -0.0000000005     5     6     6     4
 -0.1303290973     5     6     6     5
 0.0097683363     5     6     6     7
 0.0003214384     5     6     7     2
 0.0000000001     5     6     7     3
 -0.0176849195     5     6     7     4
 0.0000000007     5     6     7     5
 -0.0000000008     5     6     7     7
 0.0020720880     5     7     1     1
 -0.0065257020     5     7     1     3
 -0.0077888354     5     7     1     5
 -0.0000000001     5     7     1     6
 -0.0008846272     5     7     2     2
 0.0022997665     5     7     2     4
 0.0036354595     5     7     2     6
 -0.0024590847     5     7     3     1
 0.0053701440     5     7     3     3
 0.0011843129     5     7     3     5
 0.0000000002     5     7     3     6
 -0.0012222034     5     7     4     2
 0.0067742987     5     7     4     4
 0.0000000002     5     7     4     5
 0.0066417095     5     7     4     6
 -0.0000000001     5     7     6     1
 0.0039075837     5     7     6     2
 0.0000000003     5     7     6     3
 -0.0110432100     5     7     6     4
 0.0000000007     5     7     6     5
 -0.0097683363     5     7     6     6
 -0.0044490729     5     7     7     1
 -0.0000000001     5     7     7     2
 -0.0252529770     5     7     7     3
 0.0000000003     5     7     7     4
 -0.1568175526     5     7     7     5
 0.0000000008     5     7     7     6
 0.0012353258     6     1     1     2
 0.0521219415     6     1     1     4
 -0.1877504356     6     1     1     6
 0.0264830242     6     1     2     3
 0.0353118452     6     1     2     5
 0.0156097840     6     1     2     7
 0.0095396716     6     1     3     2
 -0.0178010193     6     1     3     4
 -0.0020270435     6     1     3     6
 -0.0121302220     6     1     4     3
 0.0030102133     6     1     4     5
 -0.0052588189     6     1     4     7
 0.0070836226     6     1     5     2
 0.0061480211     6     1     5     4
 -0.0025972243     6     1     5     6
 -0.0000000001     6     1     5     7
 -0.0015881897     6     1     7     2
 0.0048099797     6     1     7     4
 -0.0000000001     6     1     7     5
 -0.0073006996     6     1     7     6
 -0.0012353258     6     2     1     1
 0.0171964250     6     2     1     3
 0.0287762034     6     2     1     5
 0.0170642514     6     2     1     7
 0.0343269113     6     2     2     4
 -0.1876960117     6     2     2     6
 -0.0095396716     6     2     3     1
 0.0168886796     6     2     3     3
 0.0417149274     6     2     3     5
 -0.0000000001     6     2     3     6
 0.0103746856     6     2     3     7
 -0.0278220935     6     2     4     4
 0.0013473945     6     2     4     6
 -0.0070836226     6     2     5     1
 0.0142932026     6     2     5     3