&FCI NORB=  9,NELEC=  6,MS2=0,
 ORBSYM=1,1,1,1,1,1,1,1,1
 ISYM=1,
&END
 0.2007205562     1     1     2     2
 -0.0254721063     1     1     2     4
 0.0013439716     1     1     2     6
 -0.0078009509     1     1     2     8
 0.2428778166     1     1     3     3
 0.0369166410     1     1     3     5
 0.0094796661     1     1     3     7
 -0.0254721063     1     1     4     2
 0.2431344793     1     1     4     4
 0.0527102868     1     1     4     6
 0.0323420176     1     1     4     8
 0.0369166410     1     1     5     3
 0.1860891104     1     1     5     5
 -0.0019557808     1     1     5     7
 0.0013439716     1     1     6     2
 0.0527102868     1     1     6     4
 0.1880548860     1     1     6     6
 -0.0089945262     1     1     6     8
 0.0094796661     1     1     7     3
 -0.0019557808     1     1     7     5
 0.2381497791     1     1     7     7
 -0.0078009509     1     1     8     2
 0.0323420176     1     1     8     4
 -0.0089945262     1     1     8     6
 0.1984988510     1     1     8     8
 0.2951931679     1     1     9     9
 -0.2007205562     1     2     2     1
 0.0663810842     1     2     2     3
 0.0046263906     1     2     2     5
 0.0103533144     1     2     2     7
 0.0553111018     1     2     3     4
 0.0263321767     1     2     3     6
 0.0135585315     1     2     3     8
 0.0254721063     1     2     4     1
 0.0198920949     1     2     4     3
 -0.0451134949     1     2     4     5
 -0.0134542314     1     2     4     7
 -0.0329834405     1     2     5     4
 0.0350865308     1     2     5     6
 0.0072262702     1     2     5     8
 -0.0013439716     1     2     6     1
 0.0171382695     1     2     6     3
 0.0288449272     1     2     6     5
 -0.0169088187     1     2     6     7
 -0.0074621388     1     2     7     4
 -0.0155644981     1     2     7     6
 0.0365605892     1     2     7     8
 0.0078009509     1     2     8     1
 0.0011902481     1     2     8     3
 0.0027495578     1     2     8     5
 0.0336933808     1     2     8     7
 0.0000000001     1     2     8     8
 -0.0663810842     1     3     2     2
 0.0362852304     1     3     2     4
 0.0094320851     1     3     2     6
 0.0124392539     1     3     2     8
 -0.2428778166     1     3     3     1
 -0.0263731010     1     3     3     5
 0.0066052637     1     3     3     7
 -0.0198920949     1     3     4     2
 -0.0059124293     1     3     4     4
 -0.0177550275     1     3     4     6
 -0.0089154264     1     3     4     8
 -0.0369166410     1     3     5     1
 0.0044900644     1     3     5     5
 0.0064189801     1     3     5     7
 -0.0000000001     1     3     5     8
 -0.0171382695     1     3     6     2
 -0.0058452446     1     3     6     4
 0.0020193882     1     3     6     6
 0.0047304261     1     3     6     8
 -0.0094796661     1     3     7     1
 0.0023280686     1     3     7     5
 -0.0251613312     1     3     7     7
 -0.0011902481     1     3     8     2
 -0.0095211644     1     3     8     4
 -0.0000000001     1     3     8     5
 0.0009117831     1     3     8     6
 0.0000000001     1     3     8     7
 -0.0052653527     1     3     8     8
 -0.0389206123     1     3     9     9
 0.0254721063     1     4     2     1
 -0.0362852304     1     4     2     3
 -0.0129188186     1     4     2     5
 -0.0062731467     1     4     2     7
 -0.0553111018     1     4     3     2
 -0.0119978854     1     4     3     6
 0.0009385991     1     4     3     8
 -0.2431344793     1     4     4     1
 0.0059124293     1     4     4     3
 -0.0051253852     1     4     4     5
 0.0146823122     1     4     4     7
 0.0329834405     1     4     5     2
 0.0029506601     1     4     5     6
 0.0005658568     1     4     5     8
 -0.0527102868     1     4     6     1
 0.0058452446     1     4     6     3
 -0.0031195241     1     4     6     5
 0.0000000001     1     4     6     6
 0.0100610590     1     4     6     7
 0.0000000003     1     4     6     8
 0.0074621388     1     4     7     2
 0.0052595961     1     4     7     6
 -0.0000000001     1     4     7     7
 -0.0090657137     1     4     7     8
 -0.0323420176     1     4     8     1
 0.0095211644     1     4     8     3
 0.0026443131     1     4     8     5
 0.0000000001     1     4     8     6
 -0.0042672790     1     4     8     7
 -0.0046263906     1     5     2     2
 0.0129188186     1     5     2     4
 0.0070970533     1     5     2     6
 0.0050225498     1     5     2     8
 -0.0369166410     1     5     3     1
 0.0263731010     1     5     3     3
 0.0043026958     1     5     3     7
 -0.0000000001     1     5     3     8
 0.0451134949     1     5     4     2
 0.0051253852     1     5     4     4
 0.0060914639     1     5     4     6
 -0.0019988929     1     5     4     8
 -0.1860891104     1     5     5     1
 -0.0044900644     1     5     5     3
 0.0077597490     1     5     5     7
 -0.0000000001     1     5     5     8
 -0.0288449272     1     5     6     2
 0.0031195241     1     5     6     4
 0.0025923066     1     5     6     6
 -0.0000924226     1     5     6     8
 0.0019557808     1     5     7     1
 -0.0023280686     1     5     7     3
 0.0000000001     1     5     7     6
 0.0044052389     1     5     7     7
 -0.0000000002     1     5     7     8
 -0.0027495578     1     5     8     2
 0.0000000001     1     5     8     3
 -0.0026443131     1     5     8     4
 -0.0030180193     1     5     8     6
 0.0036923887     1     5     8     8
 0.0086901693     1     5     9     9
 -0.0013439716     1     6     2     1
 -0.0094320851     1     6     2     3
 -0.0070970533     1     6     2     5
 -0.0015380094     1     6     2     7
 -0.0263321767     1     6     3     2
 0.0119978854     1     6     3     4
 0.0040561184     1     6     3     8
 -0.0527102868     1     6     4     1
 0.0177550275     1     6     4     3
 -0.0060914639     1     6     4     5
 0.0047717344     1     6     4     7
 0.0000000002     1     6     4     8
 -0.0350865308     1     6     5     2
 -0.0029506601     1     6     5     4
 -0.0000000001     1     6     5     7
 0.0028685266     1     6     5     8
 -0.1880548860     1     6     6     1
 -0.0020193882     1     6     6     3
 -0.0000000001     1     6     6     4
 -0.0025923066     1     6     6     5
 0.0072750549     1     6     6     7
 -0.0000000012     1     6     6     8
 0.0155644981     1     6     7     2
 -0.0052595961     1     6     7     4
 -0.0000000001     1     6     7     5
 -0.0022601758     1     6     7     8
 0.0089945262     1     6     8     1
 -0.0009117831     1     6     8     3
 -0.0000000001     1     6     8     4
 0.0030180193     1     6     8     5
 0.0013330250     1     6     8     7
 -0.0000000010     1     6     8     8
 -0.0103533144     1     7     2     2
 0.0062731467     1     7     2     4
 0.0015380094     1     7     2     6
 0.0031703426     1     7     2     8
 -0.0094796661     1     7     3     1
 -0.0066052637     1     7     3     3
 -0.0043026958     1     7     3     5
 -0.0000000001     1     7     3     8
 0.0134542314     1     7     4     2
 -0.0146823122     1     7     4     4
 -0.0047717344     1     7     4     6
 -0.0047034661     1     7     4     8
 0.0019557808     1     7     5     1
 -0.0064189801     1     7     5     3
 -0.0077597490     1     7     5     5
 0.0000000001     1     7     5     6
 -0.0000000001     1     7     5     8
 0.0169088187     1     7     6     2
 -0.0100610590     1     7     6     4
 -0.0072750549     1     7     6     6
 -0.0035402506     1     7     6     8
 -0.2381497791     1     7     7     1
 0.0251613312     1     7     7     3
 0.0000000001     1     7     7     4
 -0.0044052389     1     7     7     5
 -0.0000000001     1     7     7     8
 -0.0336933808     1     7     8     2
 -0.0000000001     1     7     8     3
 0.0042672790     1     7     8     4
 -0.0013330250     1     7     8     6
 -0.0019674200     1     7     8     8
 -0.0312060300     1     7     9     9
 0.0078009509     1     8     2     1
 -0.0124392539     1     8     2     3
 -0.0050225498     1     8     2     5
 -0.0031703426     1     8     2     7
 -0.0135585315     1     8     3     2
 -0.0009385991     1     8     3     4
 0.0000000001     1     8     3     5
 -0.0040561184     1     8     3     6
 0.0000000001     1     8     3     7
 -0.0323420176     1     8     4     1
 0.0089154264     1     8     4     3
 0.0019988929     1     8     4     5
 -0.0000000002     1     8     4     6
 0.0047034661     1     8     4     7
 -0.0072262702     1     8     5     2
 0.0000000001     1     8     5     3
 -0.0005658568     1     8     5     4
 0.0000000001     1     8     5     5
 -0.0028685266     1     8     5     6
 0.0000000001     1     8     5     7
 0.0089945262     1     8     6     1
 -0.0047304261     1     8     6     3
 -0.0000000003     1     8     6     4
 0.0000924226     1     8     6     5
 0.0000000012     1     8     6     6
 0.0035402506     1     8     6     7
 -0.0365605892     1     8     7     2
 0.0090657137     1     8     7     4
 0.0000000002     1     8     7     5
 0.0022601758     1     8     7     6
 0.0000000001     1     8     7     7
 -0.1984988510     1     8     8     1
 -0.0000000001     1     8     8     2
 0.0052653527     1     8     8     3
 -0.0036923887     1     8     8     5
 0.0000000010     1     8     8     6
 0.0019674200     1     8     8     7
 -0.2951931679     1     9     9     1
 0.0389206123     1     9     9     3
 -0.0086901693     1     9     9     5
 0.0312060300     1     9     9     7
 -0.2007205562     2     1     1     2
 0.0254721063     2     1     1     4
 -0.0013439716     2     1     1     6
 0.0078009509     2     1     1     8
 0.0663810842     2     1     3     2
 0.0198920949     2     1     3     4
 0.0171382695     2     1     3     6
 0.0011902481     2     1     3     8
 0.0553111018     2     1     4     3
 -0.0329834405     2     1     4     5
 -0.0074621388     2     1     4     7
 0.0046263906     2     1     5     2
 -0.0451134949     2     1     5     4
 0.0288449272     2     1     5     6
 0.0027495578     2     1     5     8
 0.0263321767     2     1     6     3
 0.0350865308     2     1     6     5
 -0.0155644981     2     1     6     7
 0.0103533144     2     1     7     2
 -0.0134542314     2     1     7     4
 -0.0169088187     2     1     7     6
 0.0336933808     2     1     7     8
 0.0135585315     2     1     8     3
 0.0072262702     2     1     8     5
 0.0365605892     2     1     8     7
 0.0000000001     2     1     8     8
 0.2007205562     2     2     1     1
 -0.0663810842     2     2     1     3
 -0.0046263906     2     2     1     5
 -0.0103533144     2     2     1     7
 -0.0663810842     2     2     3     1
 0.2023046322     2     2     3     3
 0.0132715314     2     2     3     5
 0.0101830007     2     2     3     7
 0.2255106479     2     2     4     4
 0.0349863242     2     2     4     6
 0.0194727223     2     2     4     8
 -0.0046263906     2     2     5     1
 0.0132715314     2     2     5     3
 0.1888667800     2     2     5     5
 0.0008470951     2     2     5     7
 0.0349863242     2     2     6     4
 0.1880196585     2     2     6     6
 -0.0069067857     2     2     6     8
 -0.0103533144     2     2     7     1
 0.0101830007     2     2     7     3
 0.0008470951     2     2     7     5
 0.2108096283     2     2     7     7
 0.0194727223     2     2     8     4
 -0.0069067857     2     2     8     6
 0.1917017930     2     2     8     8
 0.2577341476     2     2     9     9
 0.0663810842     2     3     1     2
 -0.0362852304     2     3     1     4
 -0.0094320851     2     3     1     6
 -0.0124392539     2     3     1     8
 -0.2023046322     2     3     3     2
 0.0718314102     2     3     3     4
 0.0166496250     2     3     3     6
 0.0184574856     2     3     3     8
 -0.0553111018     2     3     4     1
 -0.0555150055     2     3     4     5
 -0.0065938877     2     3     4     7
 -0.0132715314     2     3     5     2
 -0.0297113672     2     3     5     4
 0.0413368623     2     3     5     6
 0.0123874136     2     3     5     8
 -0.0263321767     2     3     6     1
 0.0281964718     2     3     6     5
 -0.0119637381     2     3     6     7
 -0.0000000001     2     3     6     8
 -0.0101830007     2     3     7     2
 -0.0009908324     2     3     7     4
 -0.0106494766     2     3     7     6
 0.0342850303     2     3     7     8
 -0.0135585315     2     3     8     1
 0.0043167963     2     3     8     5
 0.0314563448     2     3     8     7
 0.0000000002     2     3     8     8
 -0.0254721063     2     4     1     1
 0.0362852304     2     4     1     3
 0.0129188186     2     4     1     5
 0.0062731467     2     4     1     7
 -0.0198920949     2     4     3     1
 -0.0718314102     2     4     3     3
 -0.0273184667     2     4     3     5
 -0.0054665444     2     4     3     7
 -0.2255106479     2     4     4     2
 -0.0274401877     2     4     4     6
 -0.0009751068     2     4     4     8
 0.0451134949     2     4     5     1
 0.0297113672     2     4     5     3
 0.0051894650     2     4     5     5
 -0.0020256425     2     4     5     7
 -0.0349863242     2     4     6     2
 -0.0012949241     2     4     6     6
 -0.0000000001     2     4     6     7
 0.0092702450     2     4     6     8
 0.0134542314     2     4     7     1
 0.0009908324     2     4     7     3
 0.0012876058     2     4     7     5
 -0.0283480800     2     4     7     7
 -0.0000000001     2     4     7     8
 -0.0194727223     2     4     8     2
 -0.0000000001     2     4     8     5
 0.0051998528     2     4     8     6
 -0.0000000001     2     4     8     7
 -0.0067389592     2     4     8     8
 -0.0396932743     2     4     9     9
 0.0046263906     2     5     1     2
 -0.0129188186     2     5     1     4
 -0.0070970533     2     5     1     6
 -0.0050225498     2     5     1     8
 -0.0132715314     2     5     3     2
 0.0273184667     2     5     3     4
 0.0142004514     2     5     3     6
 0.0085141079     2     5     3     8
 0.0329834405     2     5     4     1
 0.0555150055     2     5     4     3
 -0.0034496901     2     5     4     7
 -0.1888667800     2     5     5     2
 -0.0051894650     2     5     5     4
 -0.0113017412     2     5     5     6
 0.0014012593     2     5     5     8
 -0.0350865308     2     5     6     1
 -0.0281964718     2     5     6     3
 -0.0000000001     2     5     6     6
 -0.0006692874     2     5     6     7
 -0.0000000001     2     5     6     8
 -0.0008470951     2     5     7     2
 -0.0012876058     2     5     7     4
 -0.0039396389     2     5     7     6
 0.0000000001     2     5     7     7
 0.0072697669     2     5     7     8
 -0.0072262702     2     5     8     1
 -0.0043167963     2     5     8     3
 0.0000000001     2     5     8     4
 0.0074962084     2     5     8     7
 -0.0000000001     2     5     8     8
 0.0013439716     2     6     1     1
 0.0094320851     2     6     1     3
 0.0070970533     2     6     1     5
 0.0015380094     2     6     1     7
 -0.0171382695     2     6     3     1
 -0.0166496250     2     6     3     3
 -0.0142004514     2     6     3     5
 -0.0013204767     2     6     3     7
 -0.0000000001     2     6     3     8
 -0.0349863242     2     6     4     2
 0.0274401877     2     6     4     4
 -0.0000000001     2     6     4     7
 0.0040267426     2     6     4     8
 -0.0288449272     2     6     5     1
 -0.0413368623     2     6     5     3
 0.0113017412     2     6     5     5
 0.0033938275     2     6     5     7
 -0.0000000001     2     6     5     8
 -0.1880196585     2     6     6     2
 0.0012949241     2     6     6     4
 0.0000000001     2     6     6     5
 0.0000000004     2     6     6     7
 0.0054682407     2     6     6     8
 0.0169088187     2     6     7     1
 0.0106494766     2     6     7     3
 0.0039396389     2     6     7     5
 -0.0014960087     2     6     7     7
 0.0000000001     2     6     7     8
 0.0069067857     2     6     8     2
 -0.0051998528     2     6     8     4
 0.0000000003     2     6     8     7
 0.0054340010     2     6     8     8
 0.0035891152     2     6     9     9
 0.0103533144     2     7     1     2
 -0.0062731467     2     7     1     4
 -0.0015380094     2     7     1     6
 -0.0031703426     2     7     1     8
 -0.0101830007     2     7     3     2
 0.0054665444     2     7     3     4
 0.0013204767     2     7     3     6
 0.0029489281     2     7     3     8
 0.0074621388     2     7     4     1
 0.0065938877     2     7     4     3
 0.0034496901     2     7     4     5
 0.0000000001     2     7     4     6
 -0.0000000001     2     7     4     8
 -0.0008470951     2     7     5     2
 0.0020256425     2     7     5     4
 -0.0033938275     2     7     5     6
 -0.0002760421     2     7     5     8
 0.0155644981     2     7     6     1
 0.0119637381     2     7     6     3
 0.0000000001     2     7     6     4
 0.0006692874     2     7     6     5
 -0.0000000004     2     7     6     6
 -0.0000000002     2     7     6     8
 -0.2108096283     2     7     7     2
 0.0283480800     2     7     7     4
 -0.0000000001     2     7     7     5
 0.0014960087     2     7     7     6
 0.0063279055     2     7     7     8
 -0.0365605892     2     7     8     1
 -0.0314563448     2     7     8     3
 0.0000000001     2     7     8     4
 -0.0074962084     2     7     8     5
 -0.0000000003     2     7     8     6
 -0.0000000006     2     7     8     8
 -0.0078009509     2     8     1     1
 0.0124392539     2     8     1     3
 0.0050225498     2     8     1     5
 0.0031703426     2     8     1     7
 -0.0011902481     2     8     3     1
 -0.0184574856     2     8     3     3
 -0.0085141079     2     8     3     5
 0.0000000001     2     8     3     6
 -0.0029489281     2     8     3     7
 -0.0194727223     2     8     4     2
 0.0009751068     2     8     4     4
 -0.0040267426     2     8     4     6
 0.0000000001     2     8     4     7
 -0.0027495578     2     8     5     1
 -0.0123874136     2     8     5     3
 -0.0014012593     2     8     5     5
 0.0000000001     2     8     5     6
 0.0002760421     2     8     5     7
 0.0069067857     2     8     6     2
 0.0000000001     2     8     6     3
 -0.0092702450     2     8     6     4
 0.0000000001     2     8     6     5
 -0.0054682407     2     8     6     6
 0.0000000002     2     8     6     7
 -0.0336933808     2     8     7     1
 -0.0342850303     2     8     7     3
 0.0000000001     2     8     7     4
 -0.0072697669     2     8     7     5
 -0.0000000001     2     8     7     6
 -0.0063279055     2     8     7     7
 -0.0000000001     2     8     8     1
 -0.1917017930     2     8     8     2
 -0.0000000002     2     8     8     3
 0.0067389592     2     8     8     4
 0.0000000001     2     8     8     5
 -0.0054340010     2     8     8     6
 0.0000000006     2     8     8     7
 -0.0183238731     2     8     9     9
 -0.2577341476     2     9     9     2
 0.0396932743     2     9     9     4
 -0.0035891152     2     9     9     6
 0.0183238731     2     9     9     8
 -0.2428778166     3     1     1     3
 -0.0369166410     3     1     1     5
 -0.0094796661     3     1     1     7
 -0.0663810842     3     1     2     2
 -0.0198920949     3     1     2     4
 -0.0171382695     3     1     2     6
 -0.0011902481     3     1     2     8
 0.0362852304     3     1     4     2
 -0.0059124293     3     1     4     4
 -0.0058452446     3     1     4     6
 -0.0095211644     3     1     4     8
 -0.0263731010     3     1     5     3
 0.0044900644     3     1     5     5
 0.0023280686     3     1     5     7
 -0.0000000001     3     1     5     8
 0.0094320851     3     1     6     2
 -0.0177550275     3     1     6     4
 0.0020193882     3     1     6     6
 0.0009117831     3     1     6     8
 0.0066052637     3     1     7     3
 0.0064189801     3     1     7     5
 -0.0251613312     3     1     7     7
 0.0000000001     3     1     7     8
 0.0124392539     3     1     8     2
 -0.0089154264     3     1     8     4
 -0.0000000001     3     1     8     5
 0.0047304261     3     1     8     6
 -0.0052653527     3     1     8     8
 -0.0389206123     3     1     9     9
 -0.0553111018     3     2     1     4
 -0.0263321767     3     2     1     6
 -0.0135585315     3     2     1     8
 0.0663810842     3     2     2     1
 -0.2023046322     3     2     2     3
 -0.0132715314     3     2     2     5
 -0.0101830007     3     2     2     7
 -0.0362852304     3     2     4     1
 0.0718314102     3     2     4     3
 -0.0297113672     3     2     4     5
 -0.0009908324     3     2     4     7
 -0.0555150055     3     2     5     4
 0.0281964718     3     2     5     6
 0.0043167963     3     2     5     8
 -0.0094320851     3     2     6     1
 0.0166496250     3     2     6     3
 0.0413368623     3     2     6     5
 -0.0106494766     3     2     6     7
 -0.0065938877     3     2     7     4
 -0.0119637381     3     2     7     6
 0.0314563448     3     2     7     8
 -0.0124392539     3     2     8     1
 0.0184574856     3     2     8     3
 0.0123874136     3     2     8     5
 -0.0000000001     3     2     8     6
 0.0342850303     3     2     8     7
 0.0000000002     3     2     8     8
 0.2428778166     3     3     1     1
 0.0263731010     3     3     1     5
 -0.0066052637     3     3     1     7
 0.2023046322     3     3     2     2
 -0.0718314102     3     3     2     4
 -0.0166496250     3     3     2     6
 -0.0184574856     3     3     2     8
 -0.0718314102     3     3     4     2
 0.2178366072     3     3     4     4
 0.0260475327     3     3     4     6
 0.0240813556     3     3     4     8
 0.0263731010     3     3     5     1
 0.1838919928     3     3     5     5
 -0.0051376222     3     3     5     7
 -0.0166496250     3     3     6     2
 0.0260475327     3     3     6     4
 0.1807654545     3     3     6     6
 -0.0057487812     3     3     6     8
 -0.0066052637     3     3     7     1
 -0.0051376222     3     3     7     5
 0.2116164373     3     3     7     7
 -0.0184574856     3     3     8     2
 0.0240813556     3     3     8     4
 -0.0057487812     3     3     8     6
 0.1918023772     3     3     8     8
 0.2652117868     3     3     9     9
 0.0553111018     3     4     1     2
 0.0119978854     3     4     1     6
 -0.0009385991     3     4     1     8
 0.0198920949     3     4     2     1
 0.0718314102     3     4     2     3
 0.0273184667     3     4     2     5
 0.0054665444     3     4     2     7
 0.0059124293     3     4     4     1
 -0.2178366072     3     4     4     3
 -0.0609175705     3     4     4     5
 -0.0000000001     3     4     4     6
 -0.0144066159     3     4     4     7
 0.0000000001     3     4     4     8
 0.0555150055     3     4     5     2
 0.0489171164     3     4     5     6
 0.0105949840     3     4     5     8
 0.0177550275     3     4     6     1
 -0.0260475327     3     4     6     3
 0.0161635765     3     4     6     5
 0.0000000004     3     4     6     6
 -0.0153995095     3     4     6     7
 -0.0000000005     3     4     6     8
 0.0065938877     3     4     7     2
 -0.0069783099     3     4     7     6
 0.0238873791     3     4     7     8
 0.0089154264     3     4     8     1
 -0.0240813556     3     4     8     3
 -0.0038506552     3     4     8     5
 -0.0000000002     3     4     8     6
 0.0183053454     3     4     8     7
 0.0000000003     3     4     8     8
 0.0369166410     3     5     1     1
 -0.0263731010     3     5     1     3
 -0.0043026958     3     5     1     7
 0.0000000001     3     5     1     8
 0.0132715314     3     5     2     2
 -0.0273184667     3     5     2     4
 -0.0142004514     3     5     2     6
 -0.0085141079     3     5     2     8
 0.0297113672     3     5     4     2
 0.0609175705     3     5     4     4
 0.0329726014     3     5     4     6
 0.0143993900     3     5     4     8
 -0.0044900644     3     5     5     1
 -0.1838919928     3     5     5     3
 -0.0000000002     3     5     5     6
 -0.0011269317     3     5     5     7
 0.0000000003     3     5     5     8
 -0.0413368623     3     5     6     2
 -0.0161635765     3     5     6     4
 -0.0048741698     3     5     6     6
 -0.0000000001     3     5     6     7
 -0.0050285532     3     5     6     8
 -0.0064189801     3     5     7     1
 0.0051376222     3     5     7     3
 -0.0000000003     3     5     7     6
 0.0250004004     3     5     7     7
 0.0000000005     3     5     7     8
 0.0000000001     3     5     8     1
 -0.0123874136     3     5     8     2
 0.0038506552     3     5     8     4
 -0.0031705550     3     5     8     6
 0.0131299539     3     5     8     8
 0.0372203765     3     5     9     9
 0.0263321767     3     6     1     2
 -0.0119978854     3     6     1     4
 -0.0040561184     3     6     1     8
 0.0171382695     3     6     2     1
 0.0166496250     3     6     2     3
 0.0142004514     3     6     2     5
 0.0013204767     3     6     2     7
 0.0000000001     3     6     2     8
 0.0058452446     3     6     4     1
 -0.0260475327     3     6     4     3
 0.0000000001     3     6     4     4
 -0.0329726014     3     6     4     5
 -0.0085314929     3     6     4     7
 -0.0000000003     3     6     4     8
 -0.0281964718     3     6     5     2
 -0.0489171164     3     6     5     4
 0.0000000002     3     6     5     5
 0.0000000002     3     6     5     7
 -0.0017505058     3     6     5     8
 -0.0020193882     3     6     6     1
 -0.1807654545     3     6     6     3
 -0.0000000004     3     6     6     4
 0.0048741698     3     6     6     5
 -0.0060610361     3     6     6     7
 0.0000000041     3     6     6     8
 0.0119637381     3     6     7     2
 0.0069783099     3     6     7     4
 0.0000000003     3     6     7     5
 0.0000000005     3     6     7     7
 0.0142765425     3     6     7     8
 -0.0047304261     3     6     8     1
 0.0000000001     3     6     8     2
 0.0057487812     3     6     8     3
 0.0000000002     3     6     8     4
 0.0031705550     3     6     8     5
 0.0122975534     3     6     8     7
 0.0000000039     3     6     8     8
 0.0094796661     3     7     1     1
 0.0066052637     3     7     1     3
 0.0043026958     3     7     1     5
 0.0000000001     3     7     1     8
 0.0101830007     3     7     2     2
 -0.0054665444     3     7     2     4
 -0.0013204767     3     7     2     6
 -0.0029489281     3     7     2     8
 0.0009908324     3     7     4     2
 0.0144066159     3     7     4     4
 0.0085314929     3     7     4     6
 0.0056305795     3     7     4     8
 -0.0023280686     3     7     5     1
 0.0051376222     3     7     5     3
 0.0011269317     3     7     5     5
 -0.0000000002     3     7     5     6
 0.0000000005     3     7     5     8
 0.0106494766     3     7     6     2
 0.0153995095     3     7     6     4
 0.0000000001     3     7     6     5
 0.0060610361     3     7     6     6
 0.0019470177     3     7     6     8
 0.0251613312     3     7     7     1
 -0.2116164373     3     7     7     3
 -0.0250004004     3     7     7     5
 -0.0000000005     3     7     7     6
 0.0000000007     3     7     7     8
 -0.0342850303     3     7     8     2
 -0.0183053454     3     7     8     4
 -0.0122975534     3     7     8     6
 -0.0009054738     3     7     8     8
 0.0168306831     3     7     9     9
 0.0135585315     3     8     1     2
 0.0009385991     3     8     1     4
 -0.0000000001     3     8     1     5
 0.0040561184     3     8     1     6
 -0.0000000001     3     8     1     7
 0.0011902481     3     8     2     1
 0.0184574856     3     8     2     3
 0.0085141079     3     8     2     5
 -0.0000000001     3     8     2     6
 0.0029489281     3     8     2     7
 0.0095211644     3     8     4     1
 -0.0240813556     3     8     4     3
 -0.0000000001     3     8     4     4
 -0.0143993900     3     8     4     5
 0.0000000003     3     8     4     6
 -0.0056305795     3     8     4     7
 0.0000000001     3     8     5     1
 -0.0043167963     3     8     5     2
 -0.0105949840     3     8     5     4
 -0.0000000003     3     8     5     5
 0.0017505058     3     8     5     6
 -0.0000000005     3     8     5     7
 -0.0009117831     3     8     6     1
 0.0057487812     3     8     6     3
 0.0000000005     3     8     6     4
 0.0050285532     3     8     6     5
 -0.0000000041     3     8     6     6
 -0.0019470177     3     8     6     7
 -0.0000000001     3     8     7     1
 -0.0314563448     3     8     7     2
 -0.0238873791     3     8     7     4
 -0.0000000005     3     8     7     5
 -0.0142765425     3     8     7     6
 -0.0000000007     3     8     7     7
 0.0052653527     3     8     8     1
 -0.0000000002     3     8     8     2
 -0.1918023772     3     8     8     3
 -0.0000000003     3     8     8     4
 -0.0131299539     3     8     8     5
 -0.0000000039     3     8     8     6
 0.0009054738     3     8     8     7
 0.0389206123     3     9     9     1
 -0.2652117868     3     9     9     3
 -0.0372203765     3     9     9     5
 -0.0168306831     3     9     9     7
 0.0254721063     4     1     1     2
 -0.2431344793     4     1     1     4
 -0.0527102868     4     1     1     6
 -0.0323420176     4     1     1     8
 -0.0553111018     4     1     2     3
 0.0329834405     4     1     2     5
 0.0074621388     4     1     2     7
 -0.0362852304     4     1     3     2
 0.0059124293     4     1     3     4
 0.0058452446     4     1     3     6
 0.0095211644     4     1     3     8
 -0.0129188186     4     1     5     2
 -0.0051253852     4     1     5     4
 -0.0031195241     4     1     5     6
 0.0026443131     4     1     5     8
 -0.0119978854     4     1     6     3
 0.0029506601     4     1     6     5
 0.0000000001     4     1     6     6
 0.0052595961     4     1     6     7
 0.0000000001     4     1     6     8
 -0.0062731467     4     1     7     2
 0.0146823122     4     1     7     4
 0.0100610590     4     1     7     6