&FCI NORB= 15,NELEC= 16,MS2=0,
 ORBSYM=1,1,1,1,1,1,1,1,1,1,1,1,1,1,1
 ISYM=1,
&END
 0.3952115095     1     1     2     2
 -0.0000000002     1     1     2     3
 0.0051160512     1     1     2     4
 -0.0000000007     1     1     2     7
 -0.0000000001     1     1     2    10
 0.0014888591     1     1     2    11
 -0.0008176287     1     1     2    14
 -0.0000000001     1     1     2    15
 -0.0000000002     1     1     3     2
 0.6006467220     1     1     3     3
 -0.0000000166     1     1     3     4
 0.1105372442     1     1     3     7
 -0.0346707989     1     1     3    10
 -0.0000000039     1     1     3    11
 -0.0000000010     1     1     3    14
 0.0256563056     1     1     3    15
 0.0051160512     1     1     4     2
 -0.0000000166     1     1     4     3
 0.4829040775     1     1     4     4
 0.0000000149     1     1     4     7
 0.0000000046     1     1     4    10
 0.0596509458     1     1     4    11
 0.0086992516     1     1     4    14
 0.0000000006     1     1     4    15
 0.4803889800     1     1     5     5
 0.0000000163     1     1     5     6
 0.0000000092     1     1     5     8
 -0.0227782336     1     1     5     9
 -0.0000000040     1     1     5    12
 -0.0658455657     1     1     5    13
 0.0000000163     1     1     6     5
 0.4805289838     1     1     6     6
 -0.0378142667     1     1     6     8
 0.0000000062     1     1     6     9
 -0.0645974064     1     1     6    12
 -0.0000000028     1     1     6    13
 -0.0000000007     1     1     7     2
 0.1105372442     1     1     7     3
 0.0000000149     1     1     7     4
 0.5618885959     1     1     7     7
 0.0468575834     1     1     7    10
 0.0000000014     1     1     7    11
 -0.0000000016     1     1     7    14
 0.0565976292     1     1     7    15
 0.0000000092     1     1     8     5
 -0.0378142667     1     1     8     6
 0.5073030304     1     1     8     8
 -0.0000000117     1     1     8     9
 0.0054042932     1     1     8    12
 -0.0000000006     1     1     8    13
 -0.0227782336     1     1     9     5
 0.0000000062     1     1     9     6
 -0.0000000117     1     1     9     8
 0.4411141401     1     1     9     9
 -0.0000000002     1     1     9    12
 0.0011187825     1     1     9    13
 -0.0000000001     1     1    10     2
 -0.0346707989     1     1    10     3
 0.0000000046     1     1    10     4
 0.0468575834     1     1    10     7
 0.2192315095     1     1    10    10
 0.0000000042     1     1    10    11
 -0.0000000002     1     1    10    14
 -0.0089569999     1     1    10    15
 0.0014888591     1     1    11     2
 -0.0000000039     1     1    11     3
 0.0596509458     1     1    11     4
 0.0000000014     1     1    11     7
 0.0000000042     1     1    11    10
 0.2135552408     1     1    11    11
 -0.0062603231     1     1    11    14
 0.0000000021     1     1    11    15
 -0.0000000040     1     1    12     5
 -0.0645974064     1     1    12     6
 0.0054042932     1     1    12     8
 -0.0000000002     1     1    12     9
 0.2109246402     1     1    12    12
 0.0000000036     1     1    12    13
 -0.0658455657     1     1    13     5
 -0.0000000028     1     1    13     6
 -0.0000000006     1     1    13     8
 0.0011187825     1     1    13     9
 0.0000000036     1     1    13    12
 0.2119790639     1     1    13    13
 -0.0008176287     1     1    14     2
 -0.0000000010     1     1    14     3
 0.0086992516     1     1    14     4
 -0.0000000016     1     1    14     7
 -0.0000000002     1     1    14    10
 -0.0062603231     1     1    14    11
 0.2251833285     1     1    14    14
 0.0000000033     1     1    14    15
 -0.0000000001     1     1    15     2
 0.0256563056     1     1    15     3
 0.0000000006     1     1    15     4
 0.0565976292     1     1    15     7
 -0.0089569999     1     1    15    10
 0.0000000021     1     1    15    11
 0.0000000033     1     1    15    14
 0.2416512431     1     1    15    15
 -0.3952115095     1     2     2     1
 0.0044521666     1     2     2     3
 0.0000000003     1     2     2     4
 0.0129409959     1     2     2     7
 0.0024298811     1     2     2    10
 0.0000000001     1     2     2    11
 -0.0000000001     1     2     2    14
 0.0030985270     1     2     2    15
 0.0000000002     1     2     3     1
 0.1484588111     1     2     3     4
 0.0345972416     1     2     3    11
 0.0089604624     1     2     3    14
 -0.0051160512     1     2     4     1
 0.1485789891     1     2     4     3
 -0.1318404454     1     2     4     7
 -0.0407918544     1     2     4    10
 -0.0049181044     1     2     4    15
 -0.0000000008     1     2     5     5
 -0.1462520695     1     2     5     6
 -0.0823341588     1     2     5     8
 -0.0000000001     1     2     5     9
 0.0296085719     1     2     5    12
 -0.0000000001     1     2     5    13
 -0.1462429306     1     2     6     5
 0.0000000007     1     2     6     6
 0.0000000002     1     2     6     8
 -0.0552316220     1     2     6     9
 0.0000000002     1     2     6    12
 0.0306403219     1     2     6    13
 0.0000000007     1     2     7     1
 -0.1321821842     1     2     7     4
 -0.0124176125     1     2     7    11
 0.0140503378     1     2     7    14
 -0.0820767981     1     2     8     5
 0.0000000002     1     2     8     6
 0.1044624282     1     2     8     9
 0.0000000001     1     2     8    12
 0.0043354935     1     2     8    13
 -0.0000000001     1     2     9     5
 -0.0550181154     1     2     9     6
 0.1044499256     1     2     9     8
 0.0018393004     1     2     9    12
 0.0000000001     1     2    10     1
 -0.0408477223     1     2    10     4
 -0.0381876957     1     2    10    11
 0.0015347527     1     2    10    14
 -0.0014888591     1     2    11     1
 0.0346169406     1     2    11     3
 -0.0123199204     1     2    11     7
 -0.0381687145     1     2    11    10
 -0.0191609303     1     2    11    15
 0.0295925147     1     2    12     5
 0.0000000002     1     2    12     6
 0.0000000001     1     2    12     8
 0.0019224589     1     2    12     9
 -0.0000000005     1     2    12    12
 -0.0322367363     1     2    12    13
 -0.0000000001     1     2    13     5
 0.0306272524     1     2    13     6
 0.0044417826     1     2    13     8
 -0.0322369485     1     2    13    12
 0.0000000005     1     2    13    13
 0.0008176287     1     2    14     1
 0.0089411914     1     2    14     3
 0.0140009554     1     2    14     7
 0.0015254554     1     2    14    10
 -0.0296571096     1     2    14    15
 0.0000000001     1     2    15     1
 -0.0049977097     1     2    15     4
 -0.0191849428     1     2    15    11
 -0.0296441078     1     2    15    14
 0.0000000002     1     3     2     1
 -0.0044521666     1     3     2     2
 -0.0001207804     1     3     2     4
 -0.0000298883     1     3     2    11
 0.0000184722     1     3     2    14
 -0.6006467220     1     3     3     1
 0.0000000002     1     3     3     4
 0.0095762295     1     3     3     7
 0.0026535395     1     3     3    10
 0.0000000001     1     3     3    11
 0.0023514450     1     3     3    15
 0.0000000166     1     3     4     1
 -0.1485789891     1     3     4     2
 0.0052214387     1     3     4     4
 0.0000000007     1     3     4     7
 0.0000000001     1     3     4    10
 0.0012244938     1     3     4    11
 -0.0008096474     1     3     4    14
 0.0000000001     1     3     4    15
 0.0110654036     1     3     5     5
 0.0000000006     1     3     5     6
 0.0000000004     1     3     5     8
 -0.0017526995     1     3     5     9
 -0.0000000002     1     3     5    12
 -0.0040344333     1     3     5    13
 0.0000000006     1     3     6     5
 0.0109849979     1     3     6     6
 -0.0024872915     1     3     6     8
 0.0000000003     1     3     6     9
 -0.0039546976     1     3     6    12
 -0.0000000001     1     3     6    13
 -0.1105372442     1     3     7     1
 0.0000000007     1     3     7     4
 0.0177917233     1     3     7     7
 0.0047519050     1     3     7    10
 0.0000000001     1     3     7    11
 -0.0000000001     1     3     7    14
 0.0034052701     1     3     7    15
 0.0000000002     1     3     8     5
 -0.0020732570     1     3     8     6
 0.0117001571     1     3     8     8
 -0.0000000006     1     3     8     9
 0.0005649036     1     3     8    12
 -0.0012141134     1     3     9     5
 0.0000000001     1     3     9     6
 -0.0000000005     1     3     9     8
 0.0080293789     1     3     9     9
 0.0003463358     1     3     9    13
 0.0346707989     1     3    10     1
 0.0000000001     1     3    10     4
 0.0022111048     1     3    10     7
 0.0008444943     1     3    10    10
 0.0000000001     1     3    10    11
 0.0006918228     1     3    10    15
 0.0000000039     1     3    11     1
 -0.0346169406     1     3    11     2
 0.0008792636     1     3    11     4
 0.0000000001     1     3    11     7
 0.0000000001     1     3    11    10
 0.0005933166     1     3    11    11
 -0.0000014199     1     3    11    14
 -0.0000000002     1     3    12     5
 -0.0027220445     1     3    12     6
 0.0003154733     1     3    12     8
 0.0014006675     1     3    12    12
 0.0000000001     1     3    12    13
 -0.0028053465     1     3    13     5
 -0.0000000001     1     3    13     6
 -0.0000000001     1     3    13     8
 0.0002281880     1     3    13     9
 0.0000000001     1     3    13    12
 0.0014709035     1     3    13    13
 0.0000000010     1     3    14     1
 -0.0089411914     1     3    14     2
 -0.0006146204     1     3    14     4
 -0.0000278879     1     3    14    11
 0.0001950265     1     3    14    14
 -0.0256563056     1     3    15     1
 0.0000000001     1     3    15     4
 0.0026500243     1     3    15     7
 0.0011319845     1     3    15    10
 0.0008578581     1     3    15    15
 -0.0051160512     1     4     2     1
 -0.0000000003     1     4     2     2
 0.0001207804     1     4     2     3
 0.0003419649     1     4     2     7
 0.0000655011     1     4     2    10
 0.0000844272     1     4     2    15
 0.0000000166     1     4     3     1
 -0.1484588111     1     4     3     2
 -0.0000000002     1     4     3     3
 -0.0000000001     1     4     3     7
 0.0002181649     1     4     3    11
 -0.0001397539     1     4     3    14
 -0.4829040775     1     4     4     1
 -0.0052214387     1     4     4     3
 -0.0025558949     1     4     4     7
 0.0001456989     1     4     4    10
 -0.0013320129     1     4     4    15
 -0.0000000005     1     4     5     5
 -0.0064471729     1     4     5     6
 -0.0017233497     1     4     5     8
 0.0000000001     1     4     5     9
 0.0030259807     1     4     5    12
 0.0000000002     1     4     5    13
 -0.0064792159     1     4     6     5
 -0.0000000006     1     4     6     6
 0.0000000001     1     4     6     8
 -0.0007724818     1     4     6     9
 0.0000000002     1     4     6    12
 0.0031612848     1     4     6    13
 -0.0000000149     1     4     7     1
 0.1321821842     1     4     7     2
 -0.0000000007     1     4     7     3
 -0.0000000009     1     4     7     7
 -0.0000000001     1     4     7    10
 -0.0001969304     1     4     7    11
 0.0008125647     1     4     7    14
 -0.0000000002     1     4     7    15
 -0.0040336129     1     4     8     5
 0.0000000001     1     4     8     6
 -0.0000000006     1     4     8     8
 0.0059845087     1     4     8     9
 0.0017346767     1     4     8    13
 -0.0024160180     1     4     9     6
 0.0056161123     1     4     9     8
 -0.0000000004     1     4     9     9
 0.0016098590     1     4     9    12
 -0.0000000046     1     4    10     1
 0.0408477223     1     4    10     2
 -0.0000000001     1     4    10     3
 -0.0000000002     1     4    10     7
 0.0004164836     1     4    10    11
 0.0002389264     1     4    10    14
 -0.0596509458     1     4    11     1
 -0.0008792636     1     4    11     3
 -0.0006013769     1     4    11     7
 0.0004904374     1     4    11    10
 0.0002295198     1     4    11    15
 0.0018096145     1     4    12     5
 0.0000000001     1     4    12     6
 0.0006435876     1     4    12     9
 -0.0000000001     1     4    12    12
 -0.0005987857     1     4    12    13
 0.0000000001     1     4    13     5
 0.0018917304     1     4    13     6
 0.0005216406     1     4    13     8
 -0.0005959881     1     4    13    12
 -0.0086992516     1     4    14     1
 0.0006146204     1     4    14     3
 0.0009057311     1     4    14     7
 0.0001827532     1     4    14    10
 0.0011393163     1     4    14    15
 -0.0000000006     1     4    15     1
 0.0049977097     1     4    15     2
 -0.0000000001     1     4    15     3
 -0.0000000001     1     4    15     7
 0.0005539657     1     4    15    11
 0.0009409305     1     4    15    14
 -0.0000079186     1     5     2     6
 -0.0002532018     1     5     2     8
 0.0000116117     1     5     2    12
 0.0000000002     1     5     3     8
 -0.0003347736     1     5     3     9
 -0.0009262059     1     5     3    13
 0.0000327382     1     5     4     6
 0.0022963584     1     5     4     8
 0.0010309028     1     5     4    12
 0.0000000001     1     5     4    13
 -0.4803889800     1     5     5     1
 0.0000000008     1     5     5     2
 -0.0110654036     1     5     5     3
 0.0000000005     1     5     5     4
 0.0034708971     1     5     5     7
 0.0020416689     1     5     5    10
 0.0000000001     1     5     5    11
 0.0000000001     1     5     5    14
 0.0009614106     1     5     5    15
 -0.0000000163     1     5     6     1
 0.1462429306     1     5     6     2
 -0.0000000006     1     5     6     3
 0.0064792159     1     5     6     4
 -0.0000000002     1     5     6     7
 0.0000000001     1     5     6    10
 0.0011302167     1     5     6    11
 0.0020960867     1     5     6    14
 -0.0000000001     1     5     6    15
 0.0000000001     1     5     7     8
 0.0009987754     1     5     7     9
 0.0000000001     1     5     7    12
 0.0010792688     1     5     7    13
 -0.0000000092     1     5     8     1
 0.0820767981     1     5     8     2
 -0.0000000002     1     5     8     3
 0.0040336129     1     5     8     4
 -0.0000000001     1     5     8     7
 0.0009778508     1     5     8    11
 0.0001924677     1     5     8    14
 0.0227782336     1     5     9     1
 0.0000000001     1     5     9     2
 0.0012141134     1     5     9     3
 -0.0005490929     1     5     9     7
 -0.0004802708     1     5     9    10
 -0.0004001183     1     5     9    15
 0.0000992875     1     5    10     9
 -0.0000000001     1     5    10    12
 -0.0011619125     1     5    10    13
 0.0000035903     1     5    11     6
 0.0000065882     1     5    11     8
 -0.0009716189     1     5    11    12
 -0.0000000001     1     5    11    13
 0.0000000040     1     5    12     1
 -0.0295925147     1     5    12     2
 0.0000000002     1     5    12     3
 -0.0018096145     1     5    12     4
 -0.0000000001     1     5    12    10
 -0.0015754866     1     5    12    11
 0.0000817505     1     5    12    14
 0.0658455657     1     5    13     1
 0.0000000001     1     5    13     2
 0.0028053465     1     5    13     3
 -0.0000000001     1     5    13     4
 -0.0005031940     1     5    13     7
 -0.0020000782     1     5    13    10
 -0.0000000001     1     5    13    11
 -0.0001057613     1     5    13    15
 0.0000158132     1     5    14     6
 0.0002210849     1     5    14     8
 0.0008144682     1     5    14    12
 0.0001570143     1     5    15     9
 0.0003520778     1     5    15    13
 0.0000079186     1     6     2     5
 -0.0002081776     1     6     2     9
 0.0000076844     1     6     2    13
 -0.0003487661     1     6     3     8
 0.0000000001     1     6     3     9
 -0.0009319526     1     6     3    12
 -0.0000327382     1     6     4     5
 0.0019860552     1     6     4     9
 0.0000000001     1     6     4    12
 0.0010827730     1     6     4    13
 -0.0000000163     1     6     5     1
 0.1462520695     1     6     5     2
 -0.0000000006     1     6     5     3
 0.0064471729     1     6     5     4
 -0.0000000002     1     6     5     7
 0.0000000001     1     6     5    10
 0.0011372450     1     6     5    11
 0.0020739277     1     6     5    14
 -0.0000000001     1     6     5    15
 -0.4805289838     1     6     6     1
 -0.0000000007     1     6     6     2
 -0.0109849979     1     6     6     3
 0.0000000006     1     6     6     4
 0.0035362504     1     6     6     7
 0.0020451436     1     6     6    10
 0.0000000001     1     6     6    11
 0.0000000001     1     6     6    14
 0.0009979684     1     6     6    15
 0.0012077006     1     6     7     8
 0.0000000001     1     6     7     9
 0.0010144381     1     6     7    12
 0.0378142667     1     6     8     1
 -0.0000000002     1     6     8     2
 0.0020732570     1     6     8     3
 -0.0000000001     1     6     8     4
 -0.0008312402     1     6     8     7
 -0.0007072156     1     6     8    10
 -0.0005031749     1     6     8    15
 -0.0000000062     1     6     9     1
 0.0550181154     1     6     9     2
 -0.0000000001     1     6     9     3
 0.0024160180     1     6     9     4
 0.0006165202     1     6     9    11
 0.0001108451     1     6     9    14
 0.0000216964     1     6    10     8
 -0.0011646872     1     6    10    12
 -0.0000000001     1     6    10    13
 -0.0000035903     1     6    11     5
 0.0000662648     1     6    11     9
 -0.0000000001     1     6    11    12
 -0.0009707699     1     6    11    13
 0.0645974064     1     6    12     1
 -0.0000000002     1     6    12     2
 0.0027220445     1     6    12     3
 -0.0000000001     1     6    12     4
 -0.0004895359     1     6    12     7
 -0.0019772971     1     6    12    10
 -0.0000000001     1     6    12    11
 -0.0000902673     1     6    12    15
 0.0000000028     1     6    13     1
 -0.0306272524     1     6    13     2
 0.0000000001     1     6    13     3
 -0.0018917304     1     6    13     4
 -0.0000000001     1     6    13    10
 -0.0016072356     1     6    13    11
 0.0000440385     1     6    13    14
 -0.0000158132     1     6    14     5
 0.0001104943     1     6    14     9
 0.0008002377     1     6    14    13
 0.0002041199     1     6    15     8
 0.0003610827     1     6    15    12
 0.0000000007     1     7     2     1
 -0.0129409959     1     7     2     2
 -0.0003419649     1     7     2     4
 -0.0001006416     1     7     2    11
 0.0000520833     1     7     2    14
 -0.1105372442     1     7     3     1
 -0.0095762295     1     7     3     3
 0.0000000001     1     7     3     4
 0.0023305281     1     7     3    10
 -0.0000000001     1     7     3    14
 0.0004774071     1     7     3    15
 -0.0000000149     1     7     4     1
 0.1318404454     1     7     4     2
 -0.0000000007     1     7     4     3
 0.0025558949     1     7     4     4
 0.0000000001     1     7     4    10
 0.0004215917     1     7     4    11
 -0.0001777900     1     7     4    14
 -0.0000000001     1     7     4    15
 -0.0034708971     1     7     5     5
 0.0000000002     1     7     5     6
 0.0000000002     1     7     5     8
 0.0015836988     1     7     5     9
 0.0000000001     1     7     5    12
 0.0016633884     1     7     5    13
 0.0000000002     1     7     6     5
 -0.0035362504     1     7     6     6
 0.0019826439     1     7     6     8
 0.0000000001     1     7     6     9
 0.0015970841     1     7     6    12
 -0.0000000001     1     7     6    13
 -0.5618885959     1     7     7     1
 -0.0177917233     1     7     7     3
 0.0000000009     1     7     7     4
 0.0041788358     1     7     7    10
 0.0000000002     1     7     7    11
 -0.0019382244     1     7     7    15
 0.0000000001     1     7     8     5
 0.0008312402     1     7     8     6
 -0.0030951678     1     7     8     8
 -0.0000000002     1     7     8     9
 0.0000369004     1     7     8    12
 0.0005490929     1     7     9     5
 -0.0000000001     1     7     9     8
 -0.0020714952     1     7     9     9
 -0.0000242409     1     7     9    13
 -0.0468575834     1     7    10     1
 -0.0022111048     1     7    10     3
 0.0000000002     1     7    10     4
 0.0003964230     1     7    10    10
 0.0000000001     1     7    10    11
 0.0001935219     1     7    10    15
 -0.0000000014     1     7    11     1
 0.0123199204     1     7    11     2
 -0.0000000001     1     7    11     3
 0.0006013769     1     7    11     4
 0.0000000001     1     7    11    10
 0.0004656700     1     7    11    11
 0.0004768449     1     7    11    14
 0.0000000001     1     7    11    15
 0.0004895359     1     7    12     6
 -0.0002128616     1     7    12     8
 -0.0003176516     1     7    12    12
 0.0000000001     1     7    12    13
 0.0005031940     1     7    13     5
 -0.0002490535     1     7    13     9
 0.0000000001     1     7    13    12
 -0.0003295125     1     7    13    13
 0.0000000016     1     7    14     1
 -0.0140009554     1     7    14     2
 -0.0009057311     1     7    14     4
 0.0002936738     1     7    14    11
 0.0000953492     1     7    14    14
 0.0000000001     1     7    14    15
 -0.0565976292     1     7    15     1
 -0.0026500243     1     7    15     3
 0.0000000001     1     7    15     4
 0.0015579451     1     7    15    10
 0.0000000001     1     7    15    11
 0.0000000001     1     7    15    14
 -0.0000915491     1     7    15    15
 0.0002532018     1     8     2     5
 0.0000107566     1     8     2     9
 -0.0001066283     1     8     2    13
 -0.0000000002     1     8     3     5
 0.0003487661     1     8     3     6
 0.0002141181     1     8     3    12
 0.0000000001     1     8     3    13
 -0.0022963584     1     8     4     5
 -0.0001423191     1     8     4     9
 0.0011555101     1     8     4    13
 -0.0000000092     1     8     5     1
 0.0823341588     1     8     5     2
 -0.0000000004     1     8     5     3
 0.0017233497     1     8     5     4
 -0.0000000002     1     8     5     7
 0.0009188326     1     8     5    11
 -0.0000754067     1     8     5    14
 0.0378142667     1     8     6     1
 -0.0000000002     1     8     6     2
 0.0024872915     1     8     6     3
 -0.0000000001     1     8     6     4
 -0.0019826439     1     8     6     7
 -0.0007195289     1     8     6    10
 -0.0007652631     1     8     6    15
 -0.0000000001     1     8     7     5
 -0.0012077006     1     8     7     6
 0.0002457266     1     8     7    12
 -0.5073030304     1     8     8     1
 -0.0117001571     1     8     8     3
 0.0000000006     1     8     8     4
 0.0030951678     1     8     8     7
 0.0029050513     1     8     8    10
 0.0000000002     1     8     8    11
 0.0002817421     1     8     8    15
 0.0000000117     1     8     9     1
 -0.1044499256     1     8     9     2
 0.0000000005     1     8     9     3
 -0.0056161123     1     8     9     4
 0.0000000001     1     8     9     7
 -0.0000000001     1     8     9    10
 -0.0024865487     1     8     9    11
 0.0003847579     1     8     9    14
 -0.0000216964     1     8    10     6
 0.0006716757     1     8    10    12
 -0.0000000001     1     8    10    13
 -0.0000065882     1     8    11     5
 -0.0002074722     1     8    11     9
 0.0003592084     1     8    11    13
 -0.0054042932     1     8    12     1
 -0.0000000001     1     8    12     2
 -0.0003154733     1     8    12     3
 0.0002128616     1     8    12     7
 0.0008138570     1     8    12    10
 0.0000289083     1     8    12    15
 0.0000000006     1     8    13     1
 -0.0044417826     1     8    13     2
 0.0000000001     1     8    13     3
 -0.0005216406     1     8    13     4
 -0.0000000001     1     8    13    10
 -0.0000505925     1     8    13    11
 -0.0004181486     1     8    13    14
 -0.0002210849     1     8    14     5
 0.0002422270     1     8    14     9
 -0.0004286636     1     8    14    13
 -0.0002041199     1     8    15     6
 -0.0001088217     1     8    15    12
 0.0002081776     1     9     2     6
 -0.0000107566     1     9     2     8
 -0.0000882358     1     9     2    12
 0.0003347736     1     9     3     5
 -0.0000000001     1     9     3     6
 0.0000000001     1     9     3    12
 0.0001127194     1     9     3    13
 -0.0019860552     1     9     4     6
 0.0001423191     1     9     4     8
 0.0009724559     1     9     4    12
 0.0227782336     1     9     5     1
 0.0000000001     1     9     5     2
 0.0017526995     1     9     5     3
 -0.0000000001     1     9     5     4
 -0.0015836988     1     9     5     7
 -0.0005517649     1     9     5    10
 -0.0005668476     1     9     5    15
 -0.0000000062     1     9     6     1
 0.0552316220     1     9     6     2
 -0.0000000003     1     9     6     3
 0.0007724818     1     9     6     4
 -0.0000000001     1     9     6     7
 0.0005484799     1     9     6    11
 -0.0000171574     1     9     6    14
 -0.0009987754     1     9     7     5
 -0.0000000001     1     9     7     6
 0.0002184884     1     9     7    13
 0.0000000117     1     9     8     1
 -0.1044624282     1     9     8     2
 0.0000000006     1     9     8     3
 -0.0059845087     1     9     8     4
 0.0000000002     1     9     8     7
 -0.0000000001     1     9     8    10
 -0.0024516330     1     9     8    11
 0.0001137286     1     9     8    14
 -0.4411141401     1     9     9     1
 -0.0080293789     1     9     9     3
 0.0000000004     1     9     9     4
 0.0020714952     1     9     9     7
 0.0018084172     1     9     9    10
 0.0000000001     1     9     9    11
 0.0001973497     1     9     9    15
 -0.0000992875     1     9    10     5
 0.0005192953     1     9    10    13
 -0.0000662648     1     9    11     6
 0.0002074722     1     9    11     8
 0.0002640382     1     9    11    12
 0.0000000002     1     9    12     1
 -0.0019224589     1     9    12     2
 -0.0006435876     1     9    12     4
 -0.0001200063     1     9    12    11
 -0.0003248826     1     9    12    14
 -0.0011187825     1     9    13     1
 -0.0002281880     1     9    13     3
 0.0002490535     1     9    13     7
 0.0006104162     1     9    13    10
 0.0000423094     1     9    13    15
 -0.0001104943     1     9    14     6
 -0.0002422270     1     9    14     8
 -0.0003551951     1     9    14    12
 -0.0001570143     1     9    15     5
 -0.0000798852     1     9    15    13
 0.0000000001     1    10     2     1
 -0.0024298811     1    10     2     2
 -0.0000655011     1    10     2     4
 -0.0000212857     1    10     2    11
 0.0000097468     1    10     2    14
 0.0346707989     1    10     3     1
 -0.0026535395     1    10     3     3
 -0.0023305281     1    10     3     7
 -0.0004677841     1    10     3    15
 -0.0000000046     1    10     4     1
 0.0407918544     1    10     4     2
 -0.0000000001     1    10     4     3
 -0.0001456989     1    10     4     4
 -0.0000000001     1    10     4     7
 -0.0000740082     1    10     4    11
 0.0000617893     1    10     4    14
 -0.0000000001     1    10     4    15
 -0.0020416689     1    10     5     5
 -0.0000000001     1    10     5     6
 0.0005517649     1    10     5     9
 0.0008622937     1    10     5    13
 -0.0000000001     1    10     6     5
 -0.0020451436     1    10     6     6
 0.0007195289     1    10     6     8
 0.0008340465     1    10     6    12
 -0.0468575834     1    10     7     1
 -0.0047519050     1    10     7     3
 0.0000000001     1    10     7     4
 -0.0041788358     1    10     7     7
 -0.0013866639     1    10     7    15
 0.0007072156     1    10     8     6
 -0.0029050513     1    10     8     8
 0.0000000001     1    10     8     9
 -0.0001507738     1    10     8    12
 0.0004802708     1    10     9     5
 0.0000000001     1    10     9     8
 -0.0018084172     1    10     9     9
 -0.0000928388     1    10     9    13
 -0.2192315095     1    10    10     1
 -0.0008444943     1    10    10     3
 -0.0003964230     1    10    10     7
 -0.0000797601     1    10    10    15
 -0.0000000042     1    10    11     1
 0.0381687145     1    10    11     2
 -0.0000000001     1    10    11     3
 -0.0004904374     1    10    11     4
 -0.0000000001     1    10    11     7
 -0.0001136504     1    10    11    11
 0.0002343930     1    10    11    14
 0.0000000001     1    10    12     5
 0.0019772971     1    10    12     6
 -0.0008138570     1    10    12     8
 -0.0007951603     1    10    12    12
 0.0020000782     1    10    13     5
 0.0000000001     1    10    13     6
 0.0000000001     1    10    13     8
 -0.0006104162     1    10    13     9
 -0.0008180915     1    10    13    13
 0.0000000002     1    10    14     1
 -0.0015254554     1    10    14     2
 -0.0001827532     1    10    14     4
 0.0000631090     1    10    14    11
 0.0000410594     1    10    14    14
 0.0089569999     1    10    15     1
 -0.0011319845     1    10    15     3
 -0.0015579451     1    10    15     7
 -0.0003795903     1    10    15    15
 -0.0014888591     1    11     2     1
 -0.0000000001     1    11     2     2
 0.0000298883     1    11     2     3
 0.0001006416     1    11     2     7
 0.0000212857     1    11     2    10
 0.0000254893     1    11     2    15
 0.0000000039     1    11     3     1
 -0.0345972416     1    11     3     2
 -0.0000000001     1    11     3     3
 -0.0002181649     1    11     3     4
 0.0000328223     1    11     3    14
 -0.0596509458     1    11     4     1
 -0.0012244938     1    11     4     3
 -0.0004215917     1    11     4     7
 0.0000740082     1    11     4    10
 -0.0003177782     1    11     4    15
 -0.0000000001     1    11     5     5
 -0.0011372450     1    11     5     6
 -0.0009188326     1    11     5     8
 0.0006342448     1    11     5    12
 -0.0011302167     1    11     6     5
 -0.0000000001     1    11     6     6
 -0.0005484799     1    11     6     9
 0.0006726381     1    11     6    13
 -0.0000000014     1    11     7     1
 0.0124176125     1    11     7     2
 -0.0000000001     1    11     7     3
 0.0001969304     1    11     7     4