&FCI NORB= 11,NELEC= 16,MS2=0,
 ORBSYM=1,1,1,1,1,1,1,1,1,1,1
 ISYM=1,
&END
 0.3951964473     1     1     2     2
 0.0000000012     1     1     2     3
 -0.0050417878     1     1     2     4
 0.0000000037     1     1     2     7
 -0.0000000006     1     1     2    10
 0.0014649583     1     1     2    11
 0.0000000012     1     1     3     2
 0.6004532975     1     1     3     3
 -0.0000000848     1     1     3     4
 0.1103295496     1     1     3     7
 0.0338754251     1     1     3    10
 0.0000000197     1     1     3    11
 -0.0050417878     1     1     4     2
 -0.0000000848     1     1     4     3
 0.4825939603     1     1     4     4
 0.0000000759     1     1     4     7
 -0.0000000235     1     1     4    10
 -0.0580353340     1     1     4    11
 0.4803123050     1     1     5     5
 -0.0000000842     1     1     5     6
 -0.0000000459     1     1     5     8
 -0.0213446143     1     1     5     9
 -0.0000000842     1     1     6     5
 0.4803752622     1     1     6     6
 -0.0383112786     1     1     6     8
 -0.0000000313     1     1     6     9
 0.0000000037     1     1     7     2
 0.1103295496     1     1     7     3
 0.0000000759     1     1     7     4
 0.5613457275     1     1     7     7
 -0.0456934225     1     1     7    10
 -0.0000000068     1     1     7    11
 -0.0000000459     1     1     8     5
 -0.0383112786     1     1     8     6
 0.5051596902     1     1     8     8
 0.0000000577     1     1     8     9
 -0.0213446143     1     1     9     5
 -0.0000000313     1     1     9     6
 0.0000000577     1     1     9     8
 0.4422274603     1     1     9     9
 -0.0000000006     1     1    10     2
 0.0338754251     1     1    10     3
 -0.0000000235     1     1    10     4
 -0.0456934225     1     1    10     7
 0.2195412254     1     1    10    10
 0.0000000218     1     1    10    11
 0.0014649583     1     1    11     2
 0.0000000197     1     1    11     3
 -0.0580353340     1     1    11     4
 -0.0000000068     1     1    11     7
 0.0000000218     1     1    11    10
 0.2138580634     1     1    11    11
 -0.3951964473     1     2     2     1
 -0.0044028737     1     2     2     3
 -0.0000000015     1     2     2     4
 -0.0127320673     1     2     2     7
 0.0023956538     1     2     2    10
 0.0000000004     1     2     2    11
 -0.0000000012     1     2     3     1
 -0.0000000002     1     2     3     3
 0.1483099579     1     2     3     4
 -0.0000000002     1     2     3     7
 -0.0000000002     1     2     3    10
 -0.0345719429     1     2     3    11
 0.0050417878     1     2     4     1
 0.1484281312     1     2     4     3
 -0.0000000001     1     2     4     4
 -0.1319789492     1     2     4     7
 0.0406655813     1     2     4    10
 -0.0000000002     1     2     4    11
 -0.0000000057     1     2     5     5
 0.1468211583     1     2     5     6
 0.0815904218     1     2     5     8
 -0.0000000008     1     2     5     9
 0.1468112323     1     2     6     5
 0.0000000056     1     2     6     6
 0.0000000016     1     2     6     8
 0.0540397445     1     2     6     9
 -0.0000000037     1     2     7     1
 -0.0000000002     1     2     7     3
 -0.1323089317     1     2     7     4
 0.0000000001     1     2     7     7
 0.0122981594     1     2     7    11
 0.0813436138     1     2     8     5
 0.0000000016     1     2     8     6
 0.0000000004     1     2     8     8
 -0.1006145012     1     2     8     9
 -0.0000000008     1     2     9     5
 0.0538326861     1     2     9     6
 -0.1005993284     1     2     9     8
 -0.0000000003     1     2     9     9
 0.0000000006     1     2    10     1
 -0.0000000002     1     2    10     3
 0.0407186906     1     2    10     4
 -0.0000000003     1     2    10    10
 -0.0381812957     1     2    10    11
 -0.0014649583     1     2    11     1
 -0.0345914401     1     2    11     3
 -0.0000000002     1     2    11     4
 0.0122040283     1     2    11     7
 -0.0381624413     1     2    11    10
 0.0000000002     1     2    11    11
 -0.0000000012     1     3     2     1
 0.0044028737     1     3     2     2
 -0.0001196407     1     3     2     4
 0.0000303697     1     3     2    11
 -0.6004532975     1     3     3     1
 0.0000000002     1     3     3     2
 -0.0000000011     1     3     3     4
 -0.0094612022     1     3     3     7
 0.0026301959     1     3     3    10
 0.0000000005     1     3     3    11
 0.0000000848     1     3     4     1
 -0.1484281312     1     3     4     2
 -0.0052464667     1     3     4     4
 -0.0000000032     1     3     4     7
 0.0000000007     1     3     4    10
 0.0012063505     1     3     4    11
 -0.0111045589     1     3     5     5
 0.0000000031     1     3     5     6
 0.0000000020     1     3     5     8
 0.0017126166     1     3     5     9
 0.0000000031     1     3     6     5
 -0.0110403387     1     3     6     6
 0.0025759066     1     3     6     8
 0.0000000015     1     3     6     9
 -0.1103295496     1     3     7     1
 0.0000000002     1     3     7     2
 -0.0000000035     1     3     7     4
 -0.0177492681     1     3     7     7
 0.0046887429     1     3     7    10
 0.0000000009     1     3     7    11
 0.0000000012     1     3     8     5
 0.0021704498     1     3     8     6
 -0.0119280930     1     3     8     8
 -0.0000000029     1     3     8     9
 0.0011173436     1     3     9     5
 0.0000000007     1     3     9     6
 -0.0000000025     1     3     9     8
 -0.0077441169     1     3     9     9
 -0.0338754251     1     3    10     1
 0.0000000002     1     3    10     2
 0.0000000005     1     3    10     4
 0.0021527975     1     3    10     7
 -0.0008354730     1     3    10    10
 -0.0000000003     1     3    10    11
 -0.0000000197     1     3    11     1
 0.0345914401     1     3    11     2
 0.0008272126     1     3    11     4
 0.0000000005     1     3    11     7
 -0.0000000004     1     3    11    10
 -0.0005857947     1     3    11    11
 0.0050417878     1     4     2     1
 0.0000000015     1     4     2     2
 0.0001196407     1     4     2     3
 0.0003313404     1     4     2     7
 -0.0000629758     1     4     2    10
 0.0000000848     1     4     3     1
 -0.1483099579     1     4     3     2
 0.0000000011     1     4     3     3
 0.0000000003     1     4     3     7
 0.0000000002     1     4     3    10
 0.0002314547     1     4     3    11
 -0.4825939603     1     4     4     1
 0.0000000001     1     4     4     2
 0.0052464667     1     4     4     3
 0.0025996670     1     4     4     7
 0.0001142144     1     4     4    10
 0.0000000031     1     4     5     5
 -0.0064615643     1     4     5     6
 -0.0017654327     1     4     5     8
 -0.0000000002     1     4     5     9
 -0.0065145494     1     4     6     5
 0.0000000026     1     4     6     6
 -0.0000000004     1     4     6     8
 -0.0007818730     1     4     6     9
 -0.0000000759     1     4     7     1
 0.1323089317     1     4     7     2
 0.0000000035     1     4     7     3
 0.0000000046     1     4     7     7
 -0.0000000004     1     4     7    10
 -0.0002059403     1     4     7    11
 -0.0040012979     1     4     8     5
 -0.0000000004     1     4     8     6
 0.0000000032     1     4     8     8
 0.0059121352     1     4     8     9
 -0.0000000001     1     4     9     5
 -0.0022532520     1     4     9     6
 0.0053633928     1     4     9     8
 0.0000000022     1     4     9     9
 0.0000000235     1     4    10     1
 -0.0407186906     1     4    10     2
 -0.0000000005     1     4    10     3
 -0.0000000007     1     4    10     7
 0.0000000001     1     4    10    10
 -0.0004187333     1     4    10    11
 0.0580353340     1     4    11     1
 0.0000000002     1     4    11     2
 -0.0008272126     1     4    11     3
 -0.0006367742     1     4    11     7
 -0.0004813906     1     4    11    10
 0.0000077937     1     5     2     6
 0.0002435274     1     5     2     8
 0.0000000008     1     5     3     8
 0.0003397990     1     5     3     9
 0.0000462081     1     5     4     6
 0.0022242484     1     5     4     8
 -0.0000000001     1     5     4     9
 -0.4803123050     1     5     5     1
 0.0000000057     1     5     5     2
 0.0111045589     1     5     5     3
 -0.0000000031     1     5     5     4
 -0.0034076448     1     5     5     7
 0.0020194679     1     5     5    10
 0.0000000007     1     5     5    11
 0.0000000842     1     5     6     1
 -0.1468112323     1     5     6     2
 -0.0000000031     1     5     6     3
 0.0065145494     1     5     6     4
 -0.0000000009     1     5     6     7
 -0.0000000001     1     5     6    10
 -0.0011268674     1     5     6    11
 0.0000000005     1     5     7     8
 -0.0009650135     1     5     7     9
 0.0000000459     1     5     8     1
 -0.0813436138     1     5     8     2
 -0.0000000012     1     5     8     3
 0.0040012979     1     5     8     4
 -0.0000000003     1     5     8     7
 -0.0000000001     1     5     8    10
 -0.0009447249     1     5     8    11
 0.0213446143     1     5     9     1
 0.0000000008     1     5     9     2
 -0.0011173436     1     5     9     3
 0.0000000001     1     5     9     4
 0.0005319836     1     5     9     7
 -0.0004529558     1     5     9    10
 -0.0000000002     1     5     9    11
 -0.0000000001     1     5    10     8
 0.0000978299     1     5    10     9
 -0.0000005706     1     5    11     6
 -0.0000053302     1     5    11     8
 -0.0000077937     1     6     2     5
 0.0002033959     1     6     2     9
 0.0003477592     1     6     3     8
 0.0000000006     1     6     3     9
 -0.0000462081     1     6     4     5
 -0.0000000001     1     6     4     8
 0.0019224362     1     6     4     9
 0.0000000842     1     6     5     1
 -0.1468211583     1     6     5     2
 -0.0000000031     1     6     5     3
 0.0064615643     1     6     5     4
 -0.0000000010     1     6     5     7
 -0.0000000001     1     6     5    10
 -0.0011354082     1     6     5    11
 -0.4803752622     1     6     6     1
 -0.0000000056     1     6     6     2
 0.0110403387     1     6     6     3
 -0.0000000026     1     6     6     4
 -0.0034423647     1     6     6     7
 0.0020185144     1     6     6    10
 0.0000000006     1     6     6    11
 -0.0011616300     1     6     7     8
 0.0000000004     1     6     7     9
 0.0383112786     1     6     8     1
 -0.0000000016     1     6     8     2
 -0.0021704498     1     6     8     3
 0.0000000004     1     6     8     4
 0.0007759046     1     6     8     7
 -0.0007227941     1     6     8    10
 -0.0000000002     1     6     8    11
 0.0000000313     1     6     9     1
 -0.0538326861     1     6     9     2
 -0.0000000007     1     6     9     3
 0.0022532520     1     6     9     4
 -0.0000000002     1     6     9     7
 -0.0000000001     1     6     9    10
 -0.0005811670     1     6     9    11
 0.0000055983     1     6    10     8
 -0.0000000001     1     6    10     9
 0.0000005706     1     6    11     5
 -0.0000653141     1     6    11     9
 -0.0000000037     1     7     2     1
 0.0127320673     1     7     2     2
 -0.0003313404     1     7     2     4
 0.0000974695     1     7     2    11
 -0.1103295496     1     7     3     1
 0.0000000002     1     7     3     2
 0.0094612022     1     7     3     3
 -0.0000000003     1     7     3     4
 0.0023006623     1     7     3    10
 0.0000000004     1     7     3    11
 -0.0000000759     1     7     4     1
 0.1319789492     1     7     4     2
 0.0000000032     1     7     4     3
 -0.0025996670     1     7     4     4
 0.0000000004     1     7     4    10
 0.0004419067     1     7     4    11
 0.0034076448     1     7     5     5
 0.0000000010     1     7     5     6
 0.0000000008     1     7     5     8
 -0.0015335989     1     7     5     9
 0.0000000009     1     7     6     5
 0.0034423647     1     7     6     6
 -0.0018799829     1     7     6     8
 0.0000000007     1     7     6     9
 -0.5613457275     1     7     7     1
 -0.0000000001     1     7     7     2
 0.0177492681     1     7     7     3
 -0.0000000046     1     7     7     4
 0.0041242986     1     7     7    10
 0.0000000011     1     7     7    11
 0.0000000003     1     7     8     5
 -0.0007759046     1     7     8     6
 0.0029265499     1     7     8     8
 -0.0000000009     1     7     8     9
 -0.0005319836     1     7     9     5
 0.0000000002     1     7     9     6
 -0.0000000007     1     7     9     8
 0.0021282392     1     7     9     9
 0.0456934225     1     7    10     1
 -0.0021527975     1     7    10     3
 0.0000000007     1     7    10     4
 -0.0003750083     1     7    10    10
 -0.0000000007     1     7    10    11
 0.0000000068     1     7    11     1
 -0.0122040283     1     7    11     2
 -0.0000000005     1     7    11     3
 0.0006367742     1     7    11     4
 -0.0000000006     1     7    11    10
 -0.0004546439     1     7    11    11
 -0.0002435274     1     8     2     5
 -0.0000135328     1     8     2     9
 -0.0000000008     1     8     3     5
 -0.0003477592     1     8     3     6
 -0.0000000001     1     8     3     9
 -0.0022242484     1     8     4     5
 0.0000000001     1     8     4     6
 -0.0000934192     1     8     4     9
 0.0000000459     1     8     5     1
 -0.0815904218     1     8     5     2
 -0.0000000020     1     8     5     3
 0.0017654327     1     8     5     4
 -0.0000000008     1     8     5     7
 -0.0009014333     1     8     5    11
 0.0383112786     1     8     6     1
 -0.0000000016     1     8     6     2
 -0.0025759066     1     8     6     3
 0.0000000004     1     8     6     4
 0.0018799829     1     8     6     7
 -0.0007138502     1     8     6    10
 -0.0000000003     1     8     6    11
 -0.0000000005     1     8     7     5
 0.0011616300     1     8     7     6
 -0.0000000001     1     8     7     9
 -0.5051596902     1     8     8     1
 -0.0000000004     1     8     8     2
 0.0119280930     1     8     8     3
 -0.0000000032     1     8     8     4
 -0.0029265499     1     8     8     7
 0.0028736234     1     8     8    10
 0.0000000010     1     8     8    11
 -0.0000000577     1     8     9     1
 0.1005993284     1     8     9     2
 0.0000000025     1     8     9     3
 -0.0053633928     1     8     9     4
 0.0000000007     1     8     9     7
 0.0000000003     1     8     9    10
 0.0023683684     1     8     9    11
 0.0000000001     1     8    10     5
 -0.0000055983     1     8    10     6
 -0.0000000001     1     8    10     9
 0.0000053302     1     8    11     5
 0.0002199399     1     8    11     9
 -0.0002033959     1     9     2     6
 0.0000135328     1     9     2     8
 -0.0003397990     1     9     3     5
 -0.0000000006     1     9     3     6
 0.0000000001     1     9     3     8
 0.0000000001     1     9     4     5
 -0.0019224362     1     9     4     6
 0.0000934192     1     9     4     8
 0.0213446143     1     9     5     1
 0.0000000008     1     9     5     2
 -0.0017126166     1     9     5     3
 0.0000000002     1     9     5     4
 0.0015335989     1     9     5     7
 -0.0005172348     1     9     5    10
 -0.0000000002     1     9     5    11
 0.0000000313     1     9     6     1
 -0.0540397445     1     9     6     2
 -0.0000000015     1     9     6     3
 0.0007818730     1     9     6     4
 -0.0000000007     1     9     6     7
 -0.0005361434     1     9     6    11
 0.0009650135     1     9     7     5
 -0.0000000004     1     9     7     6
 0.0000000001     1     9     7     8
 -0.0000000577     1     9     8     1
 0.1006145012     1     9     8     2
 0.0000000029     1     9     8     3
 -0.0059121352     1     9     8     4
 0.0000000009     1     9     8     7
 0.0000000004     1     9     8    10
 0.0023810550     1     9     8    11
 -0.4422274603     1     9     9     1
 0.0000000003     1     9     9     2
 0.0077441169     1     9     9     3
 -0.0000000022     1     9     9     4
 -0.0021282392     1     9     9     7
 0.0017915838     1     9     9    10
 0.0000000008     1     9     9    11
 -0.0000978299     1     9    10     5
 0.0000000001     1     9    10     6
 0.0000000001     1     9    10     8
 0.0000653141     1     9    11     6
 -0.0002199399     1     9    11     8
 0.0000000006     1    10     2     1
 -0.0023956538     1    10     2     2
 0.0000629758     1    10     2     4
 -0.0000204407     1    10     2    11
 -0.0338754251     1    10     3     1
 0.0000000002     1    10     3     2
 -0.0026301959     1    10     3     3
 -0.0000000002     1    10     3     4
 -0.0023006623     1    10     3     7
 0.0000000235     1    10     4     1
 -0.0406655813     1    10     4     2
 -0.0000000007     1    10     4     3
 -0.0001142144     1    10     4     4
 -0.0000000004     1    10     4     7
 0.0000495381     1    10     4    11
 -0.0020194679     1    10     5     5
 0.0000000001     1    10     5     6
 0.0005172348     1    10     5     9
 0.0000000001     1    10     6     5
 -0.0020185144     1    10     6     6
 0.0007138502     1    10     6     8
 0.0456934225     1    10     7     1
 -0.0046887429     1    10     7     3
 0.0000000004     1    10     7     4
 -0.0041242986     1    10     7     7
 -0.0000000001     1    10     7    11
 0.0000000001     1    10     8     5
 0.0007227941     1    10     8     6
 -0.0028736234     1    10     8     8
 -0.0000000004     1    10     8     9
 0.0004529558     1    10     9     5
 0.0000000001     1    10     9     6
 -0.0000000003     1    10     9     8
 -0.0017915838     1    10     9     9
 -0.2195412254     1    10    10     1
 0.0000000003     1    10    10     2
 0.0008354730     1    10    10     3
 -0.0000000001     1    10    10     4
 0.0003750083     1    10    10     7
 0.0000000001     1    10    10    11
 -0.0000000218     1    10    11     1
 0.0381624413     1    10    11     2
 0.0000000004     1    10    11     3
 0.0004813906     1    10    11     4
 0.0000000006     1    10    11     7
 -0.0001124928     1    10    11    11
 -0.0014649583     1    11     2     1
 -0.0000000004     1    11     2     2
 -0.0000303697     1    11     2     3
 -0.0000974695     1    11     2     7
 0.0000204407     1    11     2    10
 -0.0000000197     1    11     3     1
 0.0345719429     1    11     3     2
 -0.0000000005     1    11     3     3
 -0.0002314547     1    11     3     4
 -0.0000000004     1    11     3     7
 0.0580353340     1    11     4     1
 0.0000000002     1    11     4     2
 -0.0012063505     1    11     4     3
 -0.0004419067     1    11     4     7
 -0.0000495381     1    11     4    10
 -0.0000000007     1    11     5     5
 0.0011354082     1    11     5     6
 0.0009014333     1    11     5     8
 0.0000000002     1    11     5     9
 0.0011268674     1    11     6     5
 -0.0000000006     1    11     6     6
 0.0000000003     1    11     6     8
 0.0005361434     1    11     6     9
 0.0000000068     1    11     7     1
 -0.0122981594     1    11     7     2
 -0.0000000009     1    11     7     3
 0.0002059403     1    11     7     4
 -0.0000000011     1    11     7     7
 0.0000000001     1    11     7    10
 0.0009447249     1    11     8     5
 0.0000000002     1    11     8     6
 -0.0000000010     1    11     8     8
 -0.0023810550     1    11     8     9
 0.0000000002     1    11     9     5
 0.0005811670     1    11     9     6
 -0.0023683684     1    11     9     8
 -0.0000000008     1    11     9     9
 -0.0000000218     1    11    10     1
 0.0381812957     1    11    10     2
 0.0000000003     1    11    10     3
 0.0004187333     1    11    10     4
 0.0000000007     1    11    10     7
 -0.0000000001     1    11    10    10
 -0.2138580634     1    11    11     1
 -0.0000000002     1    11    11     2
 0.0005857947     1    11    11     3
 0.0004546439     1    11    11     7
 0.0001124928     1    11    11    10
 -0.3951964473     2     1     1     2
 -0.0000000012     2     1     1     3
 0.0050417878     2     1     1     4
 -0.0000000037     2     1     1     7
 0.0000000006     2     1     1    10
 -0.0014649583     2     1     1    11
 -0.0044028737     2     1     3     2
 -0.0000000002     2     1     3     3
 0.1484281312     2     1     3     4
 -0.0000000002     2     1     3     7
 -0.0000000002     2     1     3    10
 -0.0345914401     2     1     3    11
 -0.0000000015     2     1     4     2
 0.1483099579     2     1     4     3
 -0.0000000001     2     1     4     4
 -0.1323089317     2     1     4     7
 0.0407186906     2     1     4    10
 -0.0000000002     2     1     4    11
 -0.0000000057     2     1     5     5
 0.1468112323     2     1     5     6
 0.0813436138     2     1     5     8
 -0.0000000008     2     1     5     9
 0.1468211583     2     1     6     5
 0.0000000056     2     1     6     6
 0.0000000016     2     1     6     8
 0.0538326861     2     1     6     9
 -0.0127320673     2     1     7     2
 -0.0000000002     2     1     7     3
 -0.1319789492     2     1     7     4
 0.0000000001     2     1     7     7
 0.0122040283     2     1     7    11
 0.0815904218     2     1     8     5
 0.0000000016     2     1     8     6
 0.0000000004     2     1     8     8
 -0.1005993284     2     1     8     9
 -0.0000000008     2     1     9     5
 0.0540397445     2     1     9     6
 -0.1006145012     2     1     9     8
 -0.0000000003     2     1     9     9
 0.0023956538     2     1    10     2
 -0.0000000002     2     1    10     3
 0.0406655813     2     1    10     4
 -0.0000000003     2     1    10    10
 -0.0381624413     2     1    10    11
 0.0000000004     2     1    11     2
 -0.0345719429     2     1    11     3
 -0.0000000002     2     1    11     4
 0.0122981594     2     1    11     7
 -0.0381812957     2     1    11    10
 0.0000000002     2     1    11    11
 0.3951964473     2     2     1     1
 0.0044028737     2     2     1     3
 0.0000000015     2     2     1     4
 0.0127320673     2     2     1     7
 -0.0023956538     2     2     1    10
 -0.0000000004     2     2     1    11
 0.0044028737     2     2     3     1
 0.6004806681     2     2     3     3
 0.0000000851     2     2     3     4
 0.1105388283     2     2     3     7
 0.0338306176     2     2     3    10
 -0.0000000199     2     2     3    11
 0.0000000015     2     2     4     1
 0.0000000851     2     2     4     3
 0.4824965836     2     2     4     4
 -0.0000000755     2     2     4     7
 0.0000000231     2     2     4    10
 -0.0579976144     2     2     4    11
 0.4804779609     2     2     5     5
 0.0000000842     2     2     5     6
 0.0000000474     2     2     5     8
 -0.0215152409     2     2     5     9
 0.0000000842     2     2     6     5
 0.4805252127     2     2     6     6
 -0.0385477846     2     2     6     8
 0.0000000304     2     2     6     9
 0.0127320673     2     2     7     1
 0.1105388283     2     2     7     3
 -0.0000000755     2     2     7     4
 0.5621504548     2     2     7     7
 -0.0458463302     2     2     7    10
 0.0000000072     2     2     7    11
 0.0000000474     2     2     8     5
 -0.0385477846     2     2     8     6
 0.5051605613     2     2     8     8
 -0.0000000576     2     2     8     9
 -0.0215152409     2     2     9     5
 0.0000000304     2     2     9     6
 -0.0000000576     2     2     9     8
 0.4422169660     2     2     9     9
 -0.0023956538     2     2    10     1
 0.0338306176     2     2    10     3
 0.0000000231     2     2    10     4
 -0.0458463302     2     2    10     7
 0.2195748554     2     2    10    10
 -0.0000000218     2     2    10    11
 -0.0000000004     2     2    11     1
 -0.0000000199     2     2    11     3
 -0.0579976144     2     2    11     4
 0.0000000072     2     2    11     7
 -0.0000000218     2     2    11    10
 0.2138494388     2     2    11    11
 0.0000000012     2     3     1     1
 -0.0044028737     2     3     1     2
 0.0001196407     2     3     1     4
 -0.0000303697     2     3     1    11
 0.0000000002     2     3     3     1
 -0.6004806681     2     3     3     2
 0.0039878023     2     3     3     4
 -0.0000000027     2     3     3     7
 0.0000000008     2     3     3    10
 -0.0015305187     2     3     3    11
 -0.1483099579     2     3     4     1
 -0.0000000851     2     3     4     2
 -0.0000000015     2     3     4     4
 0.0109719758     2     3     4     7
 -0.0024321889     2     3     4    10
 0.0000000003     2     3     4    11
 -0.0000000028     2     3     5     5
 -0.0107995772     2     3     5     6
 -0.0071372378     2     3     5     8
 0.0000000006     2     3     5     9
 -0.0107151422     2     3     6     5
 -0.0000000036     2     3     6     6
 0.0000000006     2     3     6     8
 -0.0052274025     2     3     6     9
 0.0000000002     2     3     7     1
 -0.1105388283     2     3     7     2
 0.0121969698     2     3     7     4
 -0.0000000051     2     3     7     7
 0.0000000013     2     3     7    10
 -0.0032035647     2     3     7    11
 -0.0044357653     2     3     8     5
 0.0000000006     2     3     8     6
 -0.0000000034     2     3     8     8
 0.0100504017     2     3     8     9
 0.0000000004     2     3     9     5
 -0.0024800745     2     3     9     6
 0.0089068286     2     3     9     8
 -0.0000000022     2     3     9     9
 0.0000000002     2     3    10     1
 -0.0338306176     2     3    10     2
 -0.0016073702     2     3    10     4
 0.0000000006     2     3    10     7
 -0.0000000002     2     3    10    10
 0.0011887976     2     3    10    11
 0.0345719429     2     3    11     1
 0.0000000199     2     3    11     2
 0.0000000002     2     3    11     4
 -0.0016910387     2     3    11     7
 0.0012072141     2     3    11    10
 -0.0000000002     2     3    11    11
 -0.0050417878     2     4     1     1
 -0.0000000015     2     4     1     2
 -0.0001196407     2     4     1     3
 -0.0003313404     2     4     1     7
 0.0000629758     2     4     1    10
 -0.1484281312     2     4     3     1
 -0.0000000851     2     4     3     2
 -0.0039878023     2     4     3     3
 -0.0012158295     2     4     3     7
 -0.0005817609     2     4     3    10
 0.0000000001     2     4     4     1
 -0.4824965836     2     4     4     2
 0.0000000015     2     4     4     3
 0.0000000007     2     4     4     7
 -0.0000396784     2     4     4    11
 -0.0099525369     2     4     5     5
 -0.0000000019     2     4     5     6
 -0.0000000005     2     4     5     8
 0.0008637973     2     4     5     9
 -0.0000000019     2     4     6     5
 -0.0100092407     2     4     6     6
 0.0012798486     2     4     6     8
 -0.0000000002     2     4     6     9
 0.1319789492     2     4     7     1
 0.0000000755     2     4     7     2
 -0.0121969698     2     4     7     3
 -0.0161270919     2     4     7     7
 0.0014734635     2     4     7    10
 -0.0000000001     2     4     7    11
 -0.0000000012     2     4     8     5
 0.0010158334     2     4     8     6
 -0.0114636556     2     4     8     8
 0.0000000017     2     4     8     9
 0.0004820769     2     4     9     5
 -0.0000000007     2     4     9     6
 0.0000000016     2     4     9     8
 -0.0076709178     2     4     9     9
 -0.0406655813     2     4    10     1
 -0.0000000231     2     4    10     2
 0.0016073702     2     4    10     3
 0.0024148532     2     4    10     7
 -0.0005818205     2     4    10    10
 -0.0000000001     2     4    10    11
 0.0000000002     2     4    11     1
 0.0579976144     2     4    11     2
 -0.0000000002     2     4    11     3
 -0.0000000002     2     4    11     7
 -0.0000000001     2     4    11    10
 -0.0000649507     2     4    11    11
 -0.0000077937     2     5     1     6
 -0.0002435274     2     5     1     8
 -0.0000949842     2     5     3     6
 -0.0026526892     2     5     3     8
 0.0000000001     2     5     3     9
 0.0000000001     2     5     4     6
 0.0000000006     2     5     4     8
 0.0002997976     2     5     4     9
 0.0000000057     2     5     5     1
 -0.4804779609     2     5     5     2
 0.0000000028     2     5     5     3
 0.0099525369     2     5     5     4
 -0.0000000011     2     5     5     7
 0.0000000006     2     5     5    10
 -0.0023916372     2     5     5    11
 -0.1468211583     2     5     6     1
 -0.0000000842     2     5     6     2
 0.0107151422     2     5     6     3
 0.0000000019     2     5     6     4
 0.0031785942     2     5     6     7
 0.0004893829     2     5     6    10
 -0.0000000003     2     5     6    11
 0.0000049075     2     5     7     6
 -0.0017457865     2     5     7     8
 -0.0000000003     2     5     7     9
 -0.0815904218     2     5     8     1
 -0.0000000474     2     5     8     2
 0.0044357653     2     5     8     3
 0.0000000012     2     5     8     4
 0.0010862634     2     5     8     7
 0.0004089720     2     5     8    10
 -0.0000000003     2     5     8    11
 0.0000000008     2     5     9     1
 0.0215152409     2     5     9     2
 -0.0000000004     2     5     9     3
 -0.0004820769     2     5     9     4
 0.0000000001     2     5     9     7
 -0.0000000001     2     5     9    10
 0.0006800705     2     5     9    11
 0.0000036278     2     5    10     6
 0.0002798720     2     5    10     8
 -0.0000736067     2     5    11     9
 0.0000077937     2     6     1     5
 -0.0002033959     2     6     1     9
 0.0000949842     2     6     3     5
 0.0000000001     2     6     3     8
 -0.0021895915     2     6     3     9
 -0.0000000001     2     6     4     5
 0.0002470649     2     6     4     8
 0.0000000005     2     6     4     9
 -0.1468112323     2     6     5     1
 -0.0000000842     2     6     5     2
 0.0107995772     2     6     5     3
 0.0000000019     2     6     5     4
 0.0031524916     2     6     5     7
 0.0004967581     2     6     5    10
 -0.0000000004     2     6     5    11
 -0.0000000056     2     6     6     1
 -0.4805252127     2     6     6     2
 0.0000000036     2     6     6     3
 0.0100092407     2     6     6     4
 -0.0000000009     2     6     6     7
 0.0000000006     2     6     6    10
 -0.0023853773     2     6     6    11