&FCI NORB= 13,NELEC= 16,MS2=0,
 ORBSYM=1,1,1,1,1,1,1,1,1,1,1,1,1
 ISYM=1,
&END
 0.3951872329     1     1     2     2
 -0.0051578295     1     1     2     4
 -0.0013707573     1     1     2    11
 0.5960694621     1     1     3     3
 -0.1105731086     1     1     3     6
 0.0341356166     1     1     3     9
 -0.0051578295     1     1     4     2
 0.4825146024     1     1     4     4
 0.0585678031     1     1     4    11
 0.4840958760     1     1     5     5
 -0.0694117041     1     1     5    12
 -0.1105731086     1     1     6     3
 0.5630050188     1     1     6     6
 0.0480477277     1     1     6     9
 0.4498223066     1     1     7     7
 0.0560745424     1     1     7    13
 0.5353703232     1     1     8     8
 0.0341356166     1     1     9     3
 0.0480477277     1     1     9     6
 0.2242289351     1     1     9     9
 0.4010895277     1     1    10    10
 -0.0013707573     1     1    11     2
 0.0585678031     1     1    11     4
 0.2051008706     1     1    11    11
 -0.0694117041     1     1    12     5
 0.2202390373     1     1    12    12
 0.0560745424     1     1    13     7
 0.1890961585     1     1    13    13
 -0.3951872329     1     2     2     1
 -0.0042158170     1     2     2     3
 0.0129415059     1     2     2     6
 0.0025736732     1     2     2     9
 0.1502359872     1     2     3     4
 0.0339235876     1     2     3    11
 0.0051578295     1     2     4     1
 0.1503504167     1     2     4     3
 0.1293463756     1     2     4     6
 0.0418618282     1     2     4     9
 0.1661538895     1     2     5     7
 0.0329853267     1     2     5    13
 0.1296901884     1     2     6     4
 0.0102559017     1     2     6    11
 0.1659457342     1     2     7     5
 -0.0274731310     1     2     7    12
 0.1130346815     1     2     8    10
 0.0419202395     1     2     9     4
 0.0373535448     1     2     9    11
 0.1127809864     1     2    10     8
 0.0013707573     1     2    11     1
 0.0339396188     1     2    11     3
 0.0101644551     1     2    11     6
 0.0373349052     1     2    11     9
 -0.0275580531     1     2    12     7
 -0.0372731897     1     2    12    13
 0.0329014735     1     2    13     5
 -0.0372391839     1     2    13    12
 0.0042158170     1     3     2     2
 -0.0001148017     1     3     2     4
 -0.0000261649     1     3     2    11
 -0.5960694621     1     3     3     1
 0.0091848926     1     3     3     6
 0.0026512596     1     3     3     9
 -0.1503504167     1     3     4     2
 -0.0052334736     1     3     4     4
 -0.0011245186     1     3     4    11
 -0.0117044403     1     3     5     5
 0.0045781909     1     3     5    12
 0.1105731086     1     3     6     1
 -0.0177474315     1     3     6     6
 -0.0049360892     1     3     6     9
 -0.0086562798     1     3     7     7
 -0.0028500989     1     3     7    13
 -0.0134912982     1     3     8     8
 -0.0341356166     1     3     9     1
 -0.0023850951     1     3     9     6
 -0.0009247120     1     3     9     9
 -0.0068856853     1     3    10    10
 -0.0339396188     1     3    11     2
 -0.0007957473     1     3    11     4
 -0.0005706714     1     3    11    11
 0.0030593546     1     3    12     5
 -0.0017079208     1     3    12    12
 -0.0021386359     1     3    13     7
 -0.0010859779     1     3    13    13
 0.0051578295     1     4     2     1
 0.0001148017     1     4     2     3
 -0.0003438567     1     4     2     6
 -0.0000693644     1     4     2     9
 -0.1502359872     1     4     3     2
 -0.0001991721     1     4     3    11
 -0.4825146024     1     4     4     1
 0.0052334736     1     4     4     3
 -0.0026622087     1     4     4     6
 0.0001158094     1     4     4     9
 -0.0059636064     1     4     5     7
 -0.0025311606     1     4     5    13
 -0.1296901884     1     4     6     2
 -0.0001533715     1     4     6    11
 -0.0080396237     1     4     7     5
 0.0041486796     1     4     7    12
 -0.0046734383     1     4     8    10
 -0.0419202395     1     4     9     2
 0.0004264426     1     4     9    11
 -0.0056329679     1     4    10     8
 -0.0585678031     1     4    11     1
 0.0007957473     1     4    11     3
 -0.0005545358     1     4    11     6
 0.0004905444     1     4    11     9
 0.0019265384     1     4    12     7
 0.0003359038     1     4    12    13
 -0.0019222361     1     4    13     5
 0.0005921844     1     4    13    12
 0.0002048118     1     5     2     7
 0.0000783742     1     5     2    13
 0.0011718929     1     5     3    12
 0.0020671396     1     5     4     7
 -0.0004262110     1     5     4    13
 -0.4840958760     1     5     5     1
 0.0117044403     1     5     5     3
 0.0037294172     1     5     5     6
 0.0018266922     1     5     5     9
 0.0014397834     1     5     6    12
 -0.1659457342     1     5     7     2
 0.0080396237     1     5     7     4
 0.0015850004     1     5     7    11
 -0.0016077302     1     5     9    12
 0.0000039367     1     5    11     7
 0.0011627432     1     5    11    13
 0.0694117041     1     5    12     1
 -0.0030593546     1     5    12     3
 -0.0004636634     1     5    12     6
 -0.0024396578     1     5    12     9
 -0.0329014735     1     5    13     2
 0.0019222361     1     5    13     4
 0.0018398616     1     5    13    11
 -0.0129415059     1     6     2     2
 0.0003438567     1     6     2     4
 0.0000933266     1     6     2    11
 0.1105731086     1     6     3     1
 -0.0091848926     1     6     3     3
 -0.0023237314     1     6     3     9
 -0.1293463756     1     6     4     2
 0.0026622087     1     6     4     4
 0.0004091493     1     6     4    11
 -0.0037294172     1     6     5     5
 0.0019737864     1     6     5    12
 -0.5630050188     1     6     6     1
 0.0177474315     1     6     6     3
 0.0043500257     1     6     6     9
 -0.0017834975     1     6     7     7
 -0.0010163769     1     6     7    13
 -0.0042566231     1     6     8     8
 -0.0480477277     1     6     9     1
 0.0023850951     1     6     9     3
 0.0004103449     1     6     9     9
 -0.0008988455     1     6    10    10
 -0.0101644551     1     6    11     2
 0.0005545358     1     6    11     4
 0.0006135660     1     6    11    11
 0.0004636634     1     6    12     5
 -0.0004058488     1     6    12    12
 -0.0002767837     1     6    13     7
 -0.0000264062     1     6    13    13
 -0.0002048118     1     7     2     5
 0.0000918729     1     7     2    12
 -0.0004612769     1     7     3    13
 -0.0020671396     1     7     4     5
 0.0020398747     1     7     4    12
 -0.1661538895     1     7     5     2
 0.0059636064     1     7     5     4
 0.0015902580     1     7     5    11
 -0.0006360966     1     7     6    13
 -0.4498223066     1     7     7     1
 0.0086562798     1     7     7     3
 0.0017834975     1     7     7     6
 0.0014546043     1     7     7     9
 0.0004117326     1     7     9    13
 -0.0000039367     1     7    11     5
 -0.0004097604     1     7    11    12
 0.0275580531     1     7    12     2
 -0.0019265384     1     7    12     4
 -0.0013005163     1     7    12    11
 -0.0560745424     1     7    13     1
 0.0021386359     1     7    13     3
 0.0002767837     1     7    13     6
 0.0009832217     1     7    13     9
 0.0002372687     1     8     2    10
 0.0016096630     1     8     4    10
 -0.5353703232     1     8     8     1
 0.0134912982     1     8     8     3
 0.0042566231     1     8     8     6
 0.0037932201     1     8     8     9
 -0.1127809864     1     8    10     2
 0.0056329679     1     8    10     4
 0.0019212807     1     8    10    11
 0.0001515846     1     8    11    10
 -0.0025736732     1     9     2     2
 0.0000693644     1     9     2     4
 0.0000205259     1     9     2    11
 -0.0341356166     1     9     3     1
 -0.0026512596     1     9     3     3
 0.0023237314     1     9     3     6
 -0.0418618282     1     9     4     2
 -0.0001158094     1     9     4     4
 -0.0000594643     1     9     4    11
 -0.0018266922     1     9     5     5
 0.0008400998     1     9     5    12
 -0.0480477277     1     9     6     1
 0.0049360892     1     9     6     3
 -0.0043500257     1     9     6     6
 -0.0014546043     1     9     7     7
 -0.0005764430     1     9     7    13
 -0.0037932201     1     9     8     8
 -0.2242289351     1     9     9     1
 0.0009247120     1     9     9     3
 -0.0004103449     1     9     9     6
 -0.0016207443     1     9    10    10
 -0.0373349052     1     9    11     2
 -0.0004905444     1     9    11     4
 -0.0000574892     1     9    11    11
 0.0024396578     1     9    12     5
 -0.0010943487     1     9    12    12
 -0.0009832217     1     9    13     7
 -0.0003599810     1     9    13    13
 -0.0002372687     1    10     2     8
 -0.0016096630     1    10     4     8
 -0.1130346815     1    10     8     2
 0.0046734383     1    10     8     4
 0.0018590068     1    10     8    11
 -0.4010895277     1    10    10     1
 0.0068856853     1    10    10     3
 0.0008988455     1    10    10     6
 0.0016207443     1    10    10     9
 -0.0001515846     1    10    11     8
 0.0013707573     1    11     2     1
 0.0000261649     1    11     2     3
 -0.0000933266     1    11     2     6
 -0.0000205259     1    11     2     9
 -0.0339235876     1    11     3     2
 0.0001991721     1    11     3     4
 -0.0585678031     1    11     4     1
 0.0011245186     1    11     4     3
 -0.0004091493     1    11     4     6
 0.0000594643     1    11     4     9
 -0.0015902580     1    11     5     7
 -0.0007020668     1    11     5    13
 -0.0102559017     1    11     6     2
 0.0001533715     1    11     6     4
 -0.0015850004     1    11     7     5
 0.0009387827     1    11     7    12
 -0.0018590068     1    11     8    10
 -0.0373535448     1    11     9     2
 -0.0004264426     1    11     9     4
 -0.0019212807     1    11    10     8
 -0.2051008706     1    11    11     1
 0.0005706714     1    11    11     3
 -0.0006135660     1    11    11     6
 0.0000574892     1    11    11     9
 0.0013005163     1    11    12     7
 0.0003531708     1    11    12    13
 -0.0018398616     1    11    13     5
 0.0006802999     1    11    13    12
 -0.0000000001     1    11    13    13
 -0.0000918729     1    12     2     7
 -0.0000362289     1    12     2    13
 -0.0011718929     1    12     3     5
 -0.0020398747     1    12     4     7
 -0.0002616211     1    12     4    13
 0.0694117041     1    12     5     1
 -0.0045781909     1    12     5     3
 -0.0019737864     1    12     5     6
 -0.0008400998     1    12     5     9
 -0.0014397834     1    12     6     5
 0.0274731310     1    12     7     2
 -0.0041486796     1    12     7     4
 -0.0009387827     1    12     7    11
 0.0016077302     1    12     9     5
 0.0004097604     1    12    11     7
 -0.0003272967     1    12    11    13
 -0.2202390373     1    12    12     1
 0.0017079208     1    12    12     3
 0.0004058488     1    12    12     6
 0.0010943487     1    12    12     9
 0.0372391839     1    12    13     2
 -0.0005921844     1    12    13     4
 -0.0006802999     1    12    13    11
 -0.0000783742     1    13     2     5
 0.0000362289     1    13     2    12
 0.0004612769     1    13     3     7
 0.0004262110     1    13     4     5
 0.0002616211     1    13     4    12
 -0.0329853267     1    13     5     2
 0.0025311606     1    13     5     4
 0.0007020668     1    13     5    11
 0.0006360966     1    13     6     7
 -0.0560745424     1    13     7     1
 0.0028500989     1    13     7     3
 0.0010163769     1    13     7     6
 0.0005764430     1    13     7     9
 -0.0004117326     1    13     9     7
 -0.0011627432     1    13    11     5
 0.0003272967     1    13    11    12
 0.0372731897     1    13    12     2
 -0.0003359038     1    13    12     4
 -0.0003531708     1    13    12    11
 -0.1890961585     1    13    13     1
 0.0010859779     1    13    13     3
 0.0000264062     1    13    13     6
 0.0003599810     1    13    13     9
 0.0000000001     1    13    13    11
 -0.3951872329     2     1     1     2
 0.0051578295     2     1     1     4
 0.0013707573     2     1     1    11
 -0.0042158170     2     1     3     2
 0.1503504167     2     1     3     4
 0.0339396188     2     1     3    11
 0.1502359872     2     1     4     3
 0.1296901884     2     1     4     6
 0.0419202395     2     1     4     9
 0.1659457342     2     1     5     7
 0.0329014735     2     1     5    13
 0.0129415059     2     1     6     2
 0.1293463756     2     1     6     4
 0.0101644551     2     1     6    11
 0.1661538895     2     1     7     5
 -0.0275580531     2     1     7    12
 0.1127809864     2     1     8    10
 0.0025736732     2     1     9     2
 0.0418618282     2     1     9     4
 0.0373349052     2     1     9    11
 0.1130346815     2     1    10     8
 0.0339235876     2     1    11     3
 0.0102559017     2     1    11     6
 0.0373535448     2     1    11     9
 -0.0274731310     2     1    12     7
 -0.0372391839     2     1    12    13
 0.0329853267     2     1    13     5
 -0.0372731897     2     1    13    12
 0.3951872329     2     2     1     1
 0.0042158170     2     2     1     3
 -0.0129415059     2     2     1     6
 -0.0025736732     2     2     1     9
 0.0042158170     2     2     3     1
 0.5960930749     2     2     3     3
 -0.1107717592     2     2     3     6
 0.0340896380     2     2     3     9
 0.4824122188     2     2     4     4
 0.0585290661     2     2     4    11
 0.4843545391     2     2     5     5
 -0.0695107058     2     2     5    12
 -0.0129415059     2     2     6     1
 -0.1107717592     2     2     6     3
 0.5638341019     2     2     6     6
 0.0482135116     2     2     6     9
 0.4496732409     2     2     7     7
 0.0560094536     2     2     7    13
 0.5357452606     2     2     8     8
 -0.0025736732     2     2     9     1
 0.0340896380     2     2     9     3
 0.0482135116     2     2     9     6
 0.2242665636     2     2     9     9
 0.4009483839     2     2    10    10
 0.0585290661     2     2    11     4
 0.2050940509     2     2    11    11
 -0.0695107058     2     2    12     5
 0.2202884418     2     2    12    12
 0.0560094536     2     2    13     7
 0.1890748129     2     2    13    13
 -0.0042158170     2     3     1     2
 0.0001148017     2     3     1     4
 0.0000261649     2     3     1    11
 -0.5960930749     2     3     3     2
 0.0037837874     2     3     3     4
 0.0013636510     2     3     3    11
 -0.1502359872     2     3     4     1
 -0.0110066785     2     3     4     6
 -0.0025496724     2     3     4     9
 -0.0132287152     2     3     5     7
 -0.0042790533     2     3     5    13
 0.1107717592     2     3     6     2
 -0.0120026184     2     3     6     4
 -0.0029440600     2     3     6    11
 -0.0108745504     2     3     7     5
 0.0037329907     2     3     7    12
 -0.0114757008     2     3     8    10
 -0.0340896380     2     3     9     2
 -0.0017061965     2     3     9     4
 -0.0011546921     2     3     9    11
 -0.0078025916     2     3    10     8
 -0.0339235876     2     3    11     1
 -0.0016129201     2     3    11     6
 -0.0011688558     2     3    11     9
 0.0033359513     2     3    12     7
 0.0020017024     2     3    12    13
 -0.0025851056     2     3    13     5
 0.0018018288     2     3    13    12
 -0.0051578295     2     4     1     1
 -0.0001148017     2     4     1     3
 0.0003438567     2     4     1     6
 0.0000693644     2     4     1     9
 -0.1503504167     2     4     3     1
 -0.0037837874     2     4     3     3
 0.0009925767     2     4     3     6
 -0.0006183219     2     4     3     9
 -0.4824122188     2     4     4     2
 0.0000123344     2     4     4    11
 -0.0097663054     2     4     5     5
 0.0040788736     2     4     5    12
 -0.1293463756     2     4     6     1
 0.0120026184     2     4     6     3
 -0.0162923590     2     4     6     6
 -0.0016481842     2     4     6     9
 -0.0094378091     2     4     7     7
 -0.0034349521     2     4     7    13
 -0.0116285996     2     4     8     8
 -0.0418618282     2     4     9     1
 0.0017061965     2     4     9     3
 -0.0027148812     2     4     9     6
 -0.0006674208     2     4     9     9
 -0.0068792157     2     4    10    10
 -0.0585290661     2     4    11     2
 0.0000327411     2     4    11    11
 0.0025782473     2     4    12     5
 -0.0015223239     2     4    12    12
 -0.0020788288     2     4    13     7
 -0.0009549941     2     4    13    13
 -0.0002048118     2     5     1     7
 -0.0000783742     2     5     1    13
 -0.0023396612     2     5     3     7
 -0.0013611106     2     5     3    13
 0.0012195323     2     5     4    12
 -0.4843545391     2     5     5     2
 0.0097663054     2     5     5     4
 0.0025920601     2     5     5    11
 0.0009691378     2     5     6     7
 -0.0002870527     2     5     6    13
 -0.1661538895     2     5     7     1
 0.0108745504     2     5     7     3
 -0.0033783389     2     5     7     6
 0.0004914711     2     5     7     9
 0.0003742426     2     5     9     7
 0.0005792359     2     5     9    13
 -0.0004331153     2     5    11    12
 0.0695107058     2     5    12     2
 -0.0025782473     2     5    12     4
 -0.0015360632     2     5    12    11
 -0.0329853267     2     5    13     1
 0.0025851056     2     5    13     3
 -0.0005422484     2     5    13     6
 0.0008403399     2     5    13     9
 0.0129415059     2     6     1     2
 -0.0003438567     2     6     1     4
 -0.0000933266     2     6     1    11
 0.1107717592     2     6     3     2
 -0.0009925767     2     6     3     4
 -0.0011067874     2     6     3    11
 -0.1296901884     2     6     4     1
 0.0110066785     2     6     4     3
 0.0013765737     2     6     4     9
 0.0043322576     2     6     5     7
 0.0003854291     2     6     5    13
 -0.5638341019     2     6     6     2
 0.0162923590     2     6     6     4
 0.0038701407     2     6     6    11
 0.0033783389     2     6     7     5
 0.0007697837     2     6     7    12
 0.0050130006     2     6     8    10
 -0.0482135116     2     6     9     2
 0.0027148812     2     6     9     4
 0.0022360660     2     6     9    11
 0.0023466061     2     6    10     8
 -0.0102559017     2     6    11     1
 0.0016129201     2     6    11     3
 0.0019059166     2     6    11     9
 -0.0009251855     2     6    12     7
 -0.0018323609     2     6    12    13
 0.0005422484     2     6    13     5
 -0.0014312266     2     6    13    12
 0.0002048118     2     7     1     5
 -0.0000918729     2     7     1    12
 0.0023396612     2     7     3     5
 0.0000683543     2     7     3    12
 -0.0011081875     2     7     4    13
 -0.1659457342     2     7     5     1
 0.0132287152     2     7     5     3
 -0.0043322576     2     7     5     6
 0.0000787485     2     7     5     9
 -0.0009691378     2     7     6     5
 0.0017817226     2     7     6    12
 -0.4496732409     2     7     7     2
 0.0094378091     2     7     7     4
 0.0019754491     2     7     7    11
 -0.0003742426     2     7     9     5
 -0.0012858999     2     7     9    12
 0.0010629718     2     7    11    13
 0.0274731310     2     7    12     1
 -0.0033359513     2     7    12     3
 0.0009251855     2     7    12     6
 -0.0019360996     2     7    12     9
 -0.0560094536     2     7    13     2
 0.0020788288     2     7    13     4
 0.0017909635     2     7    13    11
 -0.0002372687     2     8     1    10
 -0.0026337696     2     8     3    10
 0.0020682953     2     8     6    10
 -0.5357452606     2     8     8     2
 0.0116285996     2     8     8     4
 0.0038344603     2     8     8    11
 0.0002632475     2     8     9    10
 -0.1130346815     2     8    10     1
 0.0078025916     2     8    10     3
 -0.0023466061     2     8    10     6
 0.0011743237     2     8    10     9
 0.0025736732     2     9     1     2
 -0.0000693644     2     9     1     4
 -0.0000205259     2     9     1    11
 -0.0340896380     2     9     3     2
 0.0006183219     2     9     3     4
 0.0000136751     2     9     3    11
 -0.0419202395     2     9     4     1
 0.0025496724     2     9     4     3
 -0.0013765737     2     9     4     6
 -0.0000787485     2     9     5     7
 -0.0002708664     2     9     5    13
 -0.0482135116     2     9     6     2
 0.0016481842     2     9     6     4
 0.0003563496     2     9     6    11
 -0.0004914711     2     9     7     5
 0.0006898886     2     9     7    12
 -0.0009526581     2     9     8    10
 -0.2242665636     2     9     9     2
 0.0006674208     2     9     9     4
 0.0004342947     2     9     9    11
 -0.0011743237     2     9    10     8
 -0.0373535448     2     9    11     1
 0.0011688558     2     9    11     3
 -0.0019059166     2     9    11     6
 0.0019360996     2     9    12     7
 0.0004182712     2     9    12    13
 -0.0008403399     2     9    13     5
 0.0001343187     2     9    13    12
 -0.0000000001     2     9    13    13
 0.0002372687     2    10     1     8
 0.0026337696     2    10     3     8
 -0.0020682953     2    10     6     8
 -0.1127809864     2    10     8     1
 0.0114757008     2    10     8     3
 -0.0050130006     2    10     8     6
 0.0009526581     2    10     8     9
 -0.0002632475     2    10     9     8
 -0.4009483839     2    10    10     2
 0.0068792157     2    10    10     4
 0.0018961805     2    10    10    11
 -0.0013707573     2    11     1     1
 -0.0000261649     2    11     1     3
 0.0000933266     2    11     1     6
 0.0000205259     2    11     1     9
 -0.0339396188     2    11     3     1
 -0.0013636510     2    11     3     3
 0.0011067874     2    11     3     6
 -0.0000136751     2    11     3     9
 -0.0585290661     2    11     4     2
 -0.0000123344     2    11     4     4
 -0.0025920601     2    11     5     5
 0.0011320982     2    11     5    12
 -0.0101644551     2    11     6     1
 0.0029440600     2    11     6     3
 -0.0038701407     2    11     6     6
 -0.0003563496     2    11     6     9
 -0.0019754491     2    11     7     7
 -0.0007399315     2    11     7    13
 -0.0038344603     2    11     8     8
 -0.0373349052     2    11     9     1
 0.0011546921     2    11     9     3
 -0.0022360660     2    11     9     6
 -0.0004342947     2    11     9     9
 -0.0018961805     2    11    10    10
 -0.2050940509     2    11    11     2
 -0.0000327411     2    11    11     4
 0.0015360632     2    11    12     5
 -0.0007099570     2    11    12    12
 -0.0017909635     2    11    13     7
 -0.0006650025     2    11    13    13
 0.0000918729     2    12     1     7
 0.0000362289     2    12     1    13
 -0.0000683543     2    12     3     7
 0.0001946343     2    12     3    13
 -0.0012195323     2    12     4     5
 0.0695107058     2    12     5     2
 -0.0040788736     2    12     5     4
 -0.0011320982     2    12     5    11
 -0.0017817226     2    12     6     7
 -0.0004013132     2    12     6    13
 0.0275580531     2    12     7     1
 -0.0037329907     2    12     7     3
 -0.0007697837     2    12     7     6
 -0.0006898886     2    12     7     9
 0.0012858999     2    12     9     7
 0.0002841824     2    12     9    13
 0.0004331153     2    12    11     5
 -0.2202884418     2    12    12     2
 0.0015223239     2    12    12     4
 0.0007099570     2    12    12    11
 0.0372731897     2    12    13     1
 -0.0018018288     2    12    13     3
 0.0014312266     2    12    13     6
 -0.0001343187     2    12    13     9
 0.0000783742     2    13     1     5
 -0.0000362289     2    13     1    12
 0.0013611106     2    13     3     5
 -0.0001946343     2    13     3    12
 0.0011081875     2    13     4     7
 -0.0329014735     2    13     5     1
 0.0042790533     2    13     5     3
 -0.0003854291     2    13     5     6
 0.0002708664     2    13     5     9
 0.0002870527     2    13     6     5
 0.0004013132     2    13     6    12
 -0.0560094536     2    13     7     2
 0.0034349521     2    13     7     4
 0.0007399315     2    13     7    11
 -0.0005792359     2    13     9     5
 -0.0002841824     2    13     9    12
 -0.0010629718     2    13    11     7
 0.0372391839     2    13    12     1
 -0.0020017024     2    13    12     3
 0.0018323609     2    13    12     6
 -0.0004182712     2    13    12     9
 -0.1890748129     2    13    13     2
 0.0009549941     2    13    13     4
 0.0000000001     2    13    13     9
 0.0006650025     2    13    13    11
 -0.5960694621     3     1     1     3
 0.1105731086     3     1     1     6
 -0.0341356166     3     1     1     9
 0.0042158170     3     1     2     2
 -0.1503504167     3     1     2     4
 -0.0339396188     3     1     2    11
 -0.0001148017     3     1     4     2
 -0.0052334736     3     1     4     4
 -0.0007957473     3     1     4    11
 -0.0117044403     3     1     5     5
 0.0030593546     3     1     5    12
 0.0091848926     3     1     6     3
 -0.0177474315     3     1     6     6
 -0.0023850951     3     1     6     9
 -0.0086562798     3     1     7     7
 -0.0021386359     3     1     7    13
 -0.0134912982     3     1     8     8
 0.0026512596     3     1     9     3
 -0.0049360892     3     1     9     6
 -0.0009247120     3     1     9     9
 -0.0068856853     3     1    10    10
 -0.0000261649     3     1    11     2
 -0.0011245186     3     1    11     4
 -0.0005706714     3     1    11    11
 0.0045781909     3     1    12     5
 -0.0017079208     3     1    12    12
 -0.0028500989     3     1    13     7
 -0.0010859779     3     1    13    13
 -0.1502359872     3     2     1     4
 -0.0339235876     3     2     1    11
 -0.0042158170     3     2     2     1
 -0.5960930749     3     2     2     3
 0.1107717592     3     2     2     6
 -0.0340896380     3     2     2     9
 0.0001148017     3     2     4     1
 0.0037837874     3     2     4     3
 -0.0120026184     3     2     4     6
 -0.0017061965     3     2     4     9
 -0.0108745504     3     2     5     7
 -0.0025851056     3     2     5    13
 -0.0110066785     3     2     6     4
 -0.0016129201     3     2     6    11
 -0.0132287152     3     2     7     5
 0.0033359513     3     2     7    12
 -0.0078025916     3     2     8    10
 -0.0025496724     3     2     9     4
 -0.0011688558     3     2     9    11
 -0.0114757008     3     2    10     8
 0.0000261649     3     2    11     1
 0.0013636510     3     2    11     3
 -0.0029440600     3     2    11     6
 -0.0011546921     3     2    11     9
 0.0037329907     3     2    12     7
 0.0018018288     3     2    12    13
 -0.0042790533     3     2    13     5
 0.0020017024     3     2    13    12
 0.5960694621     3     3     1     1
 -0.0091848926     3     3     1     6
 -0.0026512596     3     3     1     9
 0.5960930749     3     3     2     2
 -0.0037837874     3     3     2     4
 -0.0013636510     3     3     2    11
 -0.0037837874     3     3     4     2
 0.3151948289     3     3     4     4
 0.0250569114     3     3     4    11
 0.3525016963     3     3     5     5
 -0.0381375375     3     3     5    12
 -0.0091848926     3     3     6     1
 0.3837656556     3     3     6     6
 0.0287958668     3     3     6     9
 0.3528406234     3     3     7     7
 0.0344731419     3     3     7    13
 0.3898375608     3     3     8     8
 -0.0026512596     3     3     9     1
 0.0287958668     3     3     9     6
 0.2097476301     3     3     9     9
 0.3289091692     3     3    10    10
 -0.0013636510     3     3    11     2
 0.0250569114     3     3    11     4
 0.1903873665     3     3    11    11
 -0.0381375375     3     3    12     5
 0.2049561606     3     3    12    12
 0.0344731419     3     3    13     7
 0.1797285249     3     3    13    13
 0.1502359872     3     4     1     2
 0.0001991721     3     4     1    11
 0.1503504167     3     4     2     1
 0.0037837874     3     4     2     3
 -0.0009925767     3     4     2     6
 0.0006183219     3     4     2     9
 0.0052334736     3     4     4     1
 -0.3151948289     3     4     4     3
 0.0888489529     3     4     4     6
 -0.0019675350     3     4     4     9
 0.0551040992     3     4     5     7
 0.0069739298     3     4     5    13
 0.0110066785     3     4     6     2
 -0.0093129916     3     4     6    11
 0.0326946595     3     4     7     5
 0.0030118735     3     4     7    12
 0.0430245191     3     4     8    10
 0.0025496724     3     4     9     2
 0.0235652016     3     4     9    11
 0.0290667458     3     4    10     8
 0.0011245186     3     4    11     1
 -0.0250569114     3     4    11     3
 0.0066761697     3     4    11     6
 0.0238747133     3     4    11     9
 -0.0028749978     3     4    12     7
 -0.0271489457     3     4    12    13
 0.0054741269     3     4    13     5
 -0.0260096607     3     4    13    12
 -0.0000000001     3     4    13    13
 -0.0011718929     3     5     1    12
 0.0023396612     3     5     2     7
 0.0013611106     3     5     2    13
 0.0223903523     3     5     4     7
 0.0014033979     3     5     4    13
 0.0117044403     3     5     5     1
 -0.3525016963     3     5     5     3
 0.0554921950     3     5     5     6
 -0.0201069029     3     5     5     9
 0.0078481907     3     5     6    12
 0.0132287152     3     5     7     2
 -0.0326946595     3     5     7     4
 -0.0114590533     3     5     7    11
 -0.0237948560     3     5     9    12
 -0.0005192904     3     5    11     7
 0.0184107968     3     5    11    13
 -0.0045781909     3     5    12     1
 0.0381375375     3     5    12     3
 -0.0062556242     3     5    12     6
 -0.0202376099     3     5    12     9
 0.0042790533     3     5    13     2
 -0.0054741269     3     5    13     4
 0.0160418621     3     5    13    11
 0.0000000001     3     5    13    13
 -0.1105731086     3     6     1     1
 0.0091848926     3     6     1     3
 0.0023237314     3     6     1     9
 -0.1107717592     3     6     2     2
 0.0009925767     3     6     2     4
 0.0011067874     3     6     2    11
 0.0120026184     3     6     4     2
 -0.0888489529     3     6     4     4