&FCI NORB=  7,NELEC= 10,MS2=0,
 ORBSYM=1,1,1,1,1,1,1
 ISYM=1,
&END
 0.9843515241     1     1     2     2
 0.0663207030     1     1     2     4
 0.1129583059     1     1     2     6
 0.8707898231     1     1     3     3
 0.1267067887     1     1     3     7
 0.0663207030     1     1     4     2
 0.9479340582     1     1     4     4
 -0.0554033048     1     1     4     6
 0.9922691956     1     1     5     5
 0.1129583059     1     1     6     2
 -0.0554033048     1     1     6     4
 0.3159053352     1     1     6     6
 0.1267067887     1     1     7     3
 0.2841913152     1     1     7     7
 -0.9843515241     1     2     2     1
 -0.0070913545     1     2     2     4
 0.0009900880     1     2     2     6
 0.0312259522     1     2     3     3
 0.0102079275     1     2     3     7
 -0.0663207030     1     2     4     1
 0.0359187311     1     2     4     4
 -0.0059209535     1     2     4     6
 0.0405928326     1     2     5     5
 -0.1129583059     1     2     6     1
 -0.0054789404     1     2     6     4
 0.0014076795     1     2     6     6
 0.0071482554     1     2     7     3
 0.0033674992     1     2     7     7
 0.0021741241     1     3     2     7
 -0.8707898231     1     3     3     1
 -0.0312259522     1     3     3     2
 -0.0105888382     1     3     3     4
 -0.0041192831     1     3     3     6
 -0.0009427285     1     3     4     7
 -0.0018418842     1     3     6     7
 -0.1267067887     1     3     7     1
 -0.0071482554     1     3     7     2
 -0.0025698854     1     3     7     4
 -0.0034963107     1     3     7     6
 -0.0663207030     1     4     2     1
 0.0070913545     1     4     2     2
 0.0001665968     1     4     2     6
 0.0105888382     1     4     3     3
 0.0018054990     1     4     3     7
 -0.9479340582     1     4     4     1
 -0.0359187311     1     4     4     2
 -0.0079782183     1     4     4     6
 0.0135716958     1     4     5     5
 0.0554033048     1     4     6     1
 0.0054789404     1     4     6     2
 0.0031999753     1     4     6     6
 0.0025698854     1     4     7     3
 0.0020632353     1     4     7     7
 -0.9922691956     1     5     5     1
 -0.0405928326     1     5     5     2
 -0.0135716958     1     5     5     4
 -0.0076165016     1     5     5     6
 -0.1129583059     1     6     2     1
 -0.0009900880     1     6     2     2
 -0.0001665968     1     6     2     4
 0.0041192831     1     6     3     3
 0.0016021351     1     6     3     7
 0.0554033048     1     6     4     1
 0.0059209535     1     6     4     2
 0.0079782183     1     6     4     4
 0.0076165016     1     6     5     5
 -0.3159053352     1     6     6     1
 -0.0014076795     1     6     6     2
 -0.0031999753     1     6     6     4
 0.0034963107     1     6     7     3
 0.0011541419     1     6     7     7
 -0.0021741241     1     7     2     3
 -0.1267067887     1     7     3     1
 -0.0102079275     1     7     3     2
 -0.0018054990     1     7     3     4
 -0.0016021351     1     7     3     6
 0.0009427285     1     7     4     3
 0.0018418842     1     7     6     3
 -0.2841913152     1     7     7     1
 -0.0033674992     1     7     7     2
 -0.0020632353     1     7     7     4
 -0.0011541419     1     7     7     6
 -0.9843515241     2     1     1     2
 -0.0663207030     2     1     1     4
 -0.1129583059     2     1     1     6
 0.0312259522     2     1     3     3
 0.0071482554     2     1     3     7
 -0.0070913545     2     1     4     2
 0.0359187311     2     1     4     4
 -0.0054789404     2     1     4     6
 0.0405928326     2     1     5     5
 0.0009900880     2     1     6     2
 -0.0059209535     2     1     6     4
 0.0014076795     2     1     6     6
 0.0102079275     2     1     7     3
 0.0033674992     2     1     7     7
 0.9843515241     2     2     1     1
 0.0070913545     2     2     1     4
 -0.0009900880     2     2     1     6
 0.5284936642     2     2     3     3
 0.0524184394     2     2     3     7
 0.0070913545     2     2     4     1
 0.5499946938     2     2     4     4
 -0.0231463611     2     2     4     6
 0.5761782336     2     2     5     5
 -0.0009900880     2     2     6     1
 -0.0231463611     2     2     6     4
 0.2812415926     2     2     6     6
 0.0524184394     2     2     7     3
 0.2558567613     2     2     7     7
 -0.0021741241     2     3     1     7
 -0.0312259522     2     3     3     1
 -0.5284936642     2     3     3     2
 -0.0014478974     2     3     3     4
 -0.0523559523     2     3     3     6
 0.0076211910     2     3     4     7
 0.0298660694     2     3     6     7
 -0.0102079275     2     3     7     1
 -0.0524184394     2     3     7     2
 0.0016010725     2     3     7     4
 0.0205174696     2     3     7     6
 0.0663207030     2     4     1     1
 -0.0070913545     2     4     1     2
 -0.0001665968     2     4     1     6
 0.0014478974     2     4     3     3
 0.0062613871     2     4     3     7
 -0.0359187311     2     4     4     1
 -0.5499946938     2     4     4     2
 -0.0519689736     2     4     4     6
 0.0037351641     2     4     5     5
 0.0059209535     2     4     6     1
 0.0231463611     2     4     6     2
 -0.0102579781     2     4     6     6
 -0.0016010725     2     4     7     3
 -0.0111916988     2     4     7     7
 -0.0405928326     2     5     5     1
 -0.5761782336     2     5     5     2
 -0.0037351641     2     5     5     4
 -0.0513681728     2     5     5     6
 0.1129583059     2     6     1     1
 0.0009900880     2     6     1     2
 0.0001665968     2     6     1     4
 0.0523559523     2     6     3     3
 0.0091161178     2     6     3     7
 0.0054789404     2     6     4     1
 0.0231463611     2     6     4     2
 0.0519689736     2     6     4     4
 0.0513681728     2     6     5     5
 -0.0014076795     2     6     6     1
 -0.2812415926     2     6     6     2
 0.0102579781     2     6     6     4
 -0.0205174696     2     6     7     3
 0.0054164715     2     6     7     7
 0.0021741241     2     7     1     3
 -0.0071482554     2     7     3     1
 -0.0524184394     2     7     3     2
 -0.0062613871     2     7     3     4
 -0.0091161178     2     7     3     6
 -0.0076211910     2     7     4     3
 -0.0298660694     2     7     6     3
 -0.0033674992     2     7     7     1
 -0.2558567613     2     7     7     2
 0.0111916988     2     7     7     4
 -0.0054164715     2     7     7     6
 -0.8707898231     3     1     1     3
 -0.1267067887     3     1     1     7
 -0.0312259522     3     1     2     3
 -0.0071482554     3     1     2     7
 -0.0105888382     3     1     4     3
 -0.0025698854     3     1     4     7
 -0.0041192831     3     1     6     3
 -0.0034963107     3     1     6     7
 0.0021741241     3     1     7     2
 -0.0009427285     3     1     7     4
 -0.0018418842     3     1     7     6
 -0.0312259522     3     2     1     3
 -0.0102079275     3     2     1     7
 -0.5284936642     3     2     2     3
 -0.0524184394     3     2     2     7
 -0.0014478974     3     2     4     3
 0.0016010725     3     2     4     7
 -0.0523559523     3     2     6     3
 0.0205174696     3     2     6     7
 -0.0021741241     3     2     7     1
 0.0076211910     3     2     7     4
 0.0298660694     3     2     7     6
 0.8707898231     3     3     1     1
 0.0312259522     3     3     1     2
 0.0105888382     3     3     1     4
 0.0041192831     3     3     1     6
 0.0312259522     3     3     2     1
 0.5284936642     3     3     2     2
 0.0014478974     3     3     2     4
 0.0523559523     3     3     2     6
 0.0105888382     3     3     4     1
 0.0014478974     3     3     4     2
 0.5620994635     3     3     4     4
 -0.0261585014     3     3     4     6
 0.5845612562     3     3     5     5
 0.0041192831     3     3     6     1
 0.0523559523     3     3     6     2
 -0.0261585014     3     3     6     4
 0.2840610767     3     3     6     6
 0.2470241142     3     3     7     7
 -0.0105888382     3     4     1     3
 -0.0018054990     3     4     1     7
 -0.0014478974     3     4     2     3
 -0.0062613871     3     4     2     7
 -0.5620994635     3     4     4     3
 -0.0644062770     3     4     4     7
 0.0261585014     3     4     6     3
 -0.0015632358     3     4     6     7
 0.0009427285     3     4     7     1
 -0.0076211910     3     4     7     2
 -0.0070957057     3     4     7     6
 -0.5845612562     3     5     5     3
 -0.0664329316     3     5     5     7
 -0.0041192831     3     6     1     3
 -0.0016021351     3     6     1     7
 -0.0523559523     3     6     2     3
 -0.0091161178     3     6     2     7
 0.0261585014     3     6     4     3
 0.0052199650     3     6     4     7
 -0.2840610767     3     6     6     3
 -0.0200130768     3     6     6     7
 0.0018418842     3     6     7     1
 -0.0298660694     3     6     7     2
 0.0070957057     3     6     7     4
 0.1267067887     3     7     1     1
 0.0102079275     3     7     1     2
 0.0018054990     3     7     1     4
 0.0016021351     3     7     1     6
 0.0071482554     3     7     2     1
 0.0524184394     3     7     2     2
 0.0062613871     3     7     2     4
 0.0091161178     3     7     2     6
 0.0025698854     3     7     4     1
 -0.0016010725     3     7     4     2
 0.0644062770     3     7     4     4
 -0.0052199650     3     7     4     6
 0.0664329316     3     7     5     5
 0.0034963107     3     7     6     1
 -0.0205174696     3     7     6     2
 0.0015632358     3     7     6     4
 0.0200130768     3     7     6     6
 -0.2470241142     3     7     7     3
 -0.0663207030     4     1     1     2
 -0.9479340582     4     1     1     4
 0.0554033048     4     1     1     6
 0.0070913545     4     1     2     2
 -0.0359187311     4     1     2     4
 0.0054789404     4     1     2     6
 0.0105888382     4     1     3     3
 0.0025698854     4     1     3     7
 0.0135716958     4     1     5     5
 0.0001665968     4     1     6     2
 -0.0079782183     4     1     6     4
 0.0031999753     4     1     6     6
 0.0018054990     4     1     7     3
 0.0020632353     4     1     7     7
 0.0663207030     4     2     1     1
 -0.0359187311     4     2     1     4
 0.0059209535     4     2     1     6
 -0.0070913545     4     2     2     1
 -0.5499946938     4     2     2     4
 0.0231463611     4     2     2     6
 0.0014478974     4     2     3     3
 -0.0016010725     4     2     3     7
 0.0037351641     4     2     5     5
 -0.0001665968     4     2     6     1
 -0.0519689736     4     2     6     4
 -0.0102579781     4     2     6     6
 0.0062613871     4     2     7     3
 -0.0111916988     4     2     7     7
 0.0009427285     4     3     1     7
 -0.0076211910     4     3     2     7
 -0.0105888382     4     3     3     1
 -0.0014478974     4     3     3     2
 -0.5620994635     4     3     3     4
 0.0261585014     4     3     3     6
 -0.0070957057     4     3     6     7
 -0.0018054990     4     3     7     1
 -0.0062613871     4     3     7     2
 -0.0644062770     4     3     7     4
 -0.0015632358     4     3     7     6
 0.9479340582     4     4     1     1
 0.0359187311     4     4     1     2
 0.0079782183     4     4     1     6
 0.0359187311     4     4     2     1
 0.5499946938     4     4     2     2
 0.0519689736     4     4     2     6
 0.5620994635     4     4     3     3
 0.0644062770     4     4     3     7
 0.6028664416     4     4     5     5
 0.0079782183     4     4     6     1
 0.0519689736     4     4     6     2
 0.2717934408     4     4     6     6
 0.0644062770     4     4     7     3
 0.2469464988     4     4     7     7
 -0.0135716958     4     5     5     1
 -0.0037351641     4     5     5     2
 -0.6028664416     4     5     5     4
 0.0308852870     4     5     5     6
 -0.0554033048     4     6     1     1
 -0.0059209535     4     6     1     2
 -0.0079782183     4     6     1     4
 -0.0054789404     4     6     2     1
 -0.0231463611     4     6     2     2
 -0.0519689736     4     6     2     4
 -0.0261585014     4     6     3     3
 -0.0052199650     4     6     3     7
 -0.0308852870     4     6     5     5
 -0.0031999753     4     6     6     1
 0.0102579781     4     6     6     2
 -0.2717934408     4     6     6     4
 0.0015632358     4     6     7     3
 -0.0044727594     4     6     7     7
 -0.0009427285     4     7     1     3
 0.0076211910     4     7     2     3
 -0.0025698854     4     7     3     1
 0.0016010725     4     7     3     2
 -0.0644062770     4     7     3     4
 0.0052199650     4     7     3     6
 0.0070957057     4     7     6     3
 -0.0020632353     4     7     7     1
 0.0111916988     4     7     7     2
 -0.2469464988     4     7     7     4
 0.0044727594     4     7     7     6
 -0.9922691956     5     1     1     5
 -0.0405928326     5     1     2     5
 -0.0135716958     5     1     4     5
 -0.0076165016     5     1     6     5
 -0.0405928326     5     2     1     5
 -0.5761782336     5     2     2     5
 -0.0037351641     5     2     4     5
 -0.0513681728     5     2     6     5
 -0.5845612562     5     3     3     5
 -0.0664329316     5     3     7     5
 -0.0135716958     5     4     1     5
 -0.0037351641     5     4     2     5
 -0.6028664416     5     4     4     5
 0.0308852870     5     4     6     5
 0.9922691956     5     5     1     1
 0.0405928326     5     5     1     2
 0.0135716958     5     5     1     4
 0.0076165016     5     5     1     6
 0.0405928326     5     5     2     1
 0.5761782336     5     5     2     2
 0.0037351641     5     5     2     4
 0.0513681728     5     5     2     6
 0.5845612562     5     5     3     3
 0.0664329316     5     5     3     7
 0.0135716958     5     5     4     1
 0.0037351641     5     5     4     2
 0.6028664416     5     5     4     4
 -0.0308852870     5     5     4     6
 0.0076165016     5     5     6     1
 0.0513681728     5     5     6     2
 -0.0308852870     5     5     6     4
 0.2791442145     5     5     6     6
 0.0664329316     5     5     7     3
 0.2506307774     5     5     7     7
 -0.0076165016     5     6     1     5
 -0.0513681728     5     6     2     5
 0.0308852870     5     6     4     5
 -0.2791442145     5     6     6     5
 -0.0664329316     5     7     3     5
 -0.2506307774     5     7     7     5
 -0.1129583059     6     1     1     2
 0.0554033048     6     1     1     4
 -0.3159053352     6     1     1     6
 -0.0009900880     6     1     2     2
 0.0059209535     6     1     2     4
 -0.0014076795     6     1     2     6
 0.0041192831     6     1     3     3
 0.0034963107     6     1     3     7
 -0.0001665968     6     1     4     2
 0.0079782183     6     1     4     4
 -0.0031999753     6     1     4     6
 0.0076165016     6     1     5     5
 0.0016021351     6     1     7     3
 0.0011541419     6     1     7     7
 0.1129583059     6     2     1     1
 0.0054789404     6     2     1     4
 -0.0014076795     6     2     1     6
 0.0009900880     6     2     2     1
 0.0231463611     6     2     2     4
 -0.2812415926     6     2     2     6
 0.0523559523     6     2     3     3
 -0.0205174696     6     2     3     7
 0.0001665968     6     2     4     1
 0.0519689736     6     2     4     4
 0.0102579781     6     2     4     6
 0.0513681728     6     2     5     5
 0.0091161178     6     2     7     3
 0.0054164715     6     2     7     7
 0.0018418842     6     3     1     7
 -0.0298660694     6     3     2     7
 -0.0041192831     6     3     3     1
 -0.0523559523     6     3     3     2
 0.0261585014     6     3     3     4
 -0.2840610767     6     3     3     6
 0.0070957057     6     3     4     7
 -0.0016021351     6     3     7     1
 -0.0091161178     6     3     7     2
 0.0052199650     6     3     7     4
 -0.0200130768     6     3     7     6
 -0.0554033048     6     4     1     1
 -0.0054789404     6     4     1     2
 -0.0031999753     6     4     1     6
 -0.0059209535     6     4     2     1
 -0.0231463611     6     4     2     2
 0.0102579781     6     4     2     6
 -0.0261585014     6     4     3     3
 0.0015632358     6     4     3     7
 -0.0079782183     6     4     4     1
 -0.0519689736     6     4     4     2
 -0.2717934408     6     4     4     6
 -0.0308852870     6     4     5     5
 -0.0052199650     6     4     7     3
 -0.0044727594     6     4     7     7
 -0.0076165016     6     5     5     1
 -0.0513681728     6     5     5     2
 0.0308852870     6     5     5     4
 -0.2791442145     6     5     5     6
 0.3159053352     6     6     1     1
 0.0014076795     6     6     1     2
 0.0031999753     6     6     1     4
 0.0014076795     6     6     2     1
 0.2812415926     6     6     2     2
 -0.0102579781     6     6     2     4
 0.2840610767     6     6     3     3
 0.0200130768     6     6     3     7
 0.0031999753     6     6     4     1
 -0.0102579781     6     6     4     2
 0.2717934408     6     6     4     4
 0.2791442145     6     6     5     5
 0.0200130768     6     6     7     3
 0.1708406144     6     6     7     7
 -0.0018418842     6     7     1     3
 0.0298660694     6     7     2     3
 -0.0034963107     6     7     3     1
 0.0205174696     6     7     3     2
 -0.0015632358     6     7     3     4
 -0.0200130768     6     7     3     6
 -0.0070957057     6     7     4     3
 -0.0011541419     6     7     7     1
 -0.0054164715     6     7     7     2
 0.0044727594     6     7     7     4
 -0.1708406144     6     7     7     6
 -0.1267067887     7     1     1     3
 -0.2841913152     7     1     1     7
 -0.0102079275     7     1     2     3
 -0.0033674992     7     1     2     7
 -0.0021741241     7     1     3     2
 0.0009427285     7     1     3     4
 0.0018418842     7     1     3     6
 -0.0018054990     7     1     4     3
 -0.0020632353     7     1     4     7
 -0.0016021351     7     1     6     3
 -0.0011541419     7     1     6     7
 -0.0071482554     7     2     1     3
 -0.0033674992     7     2     1     7
 -0.0524184394     7     2     2     3
 -0.2558567613     7     2     2     7
 0.0021741241     7     2     3     1
 -0.0076211910     7     2     3     4
 -0.0298660694     7     2     3     6
 -0.0062613871     7     2     4     3
 0.0111916988     7     2     4     7
 -0.0091161178     7     2     6     3
 -0.0054164715     7     2     6     7
 0.1267067887     7     3     1     1
 0.0071482554     7     3     1     2
 0.0025698854     7     3     1     4
 0.0034963107     7     3     1     6
 0.0102079275     7     3     2     1
 0.0524184394     7     3     2     2
 -0.0016010725     7     3     2     4
 -0.0205174696     7     3     2     6
 -0.2470241142     7     3     3     7
 0.0018054990     7     3     4     1
 0.0062613871     7     3     4     2
 0.0644062770     7     3     4     4
 0.0015632358     7     3     4     6
 0.0664329316     7     3     5     5
 0.0016021351     7     3     6     1
 0.0091161178     7     3     6     2
 -0.0052199650     7     3     6     4
 0.0200130768     7     3     6     6
 -0.0025698854     7     4     1     3
 -0.0020632353     7     4     1     7
 0.0016010725     7     4     2     3
 0.0111916988     7     4     2     7
 -0.0009427285     7     4     3     1
 0.0076211910     7     4     3     2
 0.0070957057     7     4     3     6
 -0.0644062770     7     4     4     3
 -0.2469464988     7     4     4     7
 0.0052199650     7     4     6     3
 0.0044727594     7     4     6     7
 -0.0664329316     7     5     5     3
 -0.2506307774     7     5     5     7
 -0.0034963107     7     6     1     3
 -0.0011541419     7     6     1     7
 0.0205174696     7     6     2     3
 -0.0054164715     7     6     2     7
 -0.0018418842     7     6     3     1
 0.0298660694     7     6     3     2
 -0.0070957057     7     6     3     4
 -0.0015632358     7     6     4     3
 0.0044727594     7     6     4     7
 -0.0200130768     7     6     6     3
 -0.1708406144     7     6     6     7
 0.2841913152     7     7     1     1
 0.0033674992     7     7     1     2
 0.0020632353     7     7     1     4
 0.0011541419     7     7     1     6
 0.0033674992     7     7     2     1
 0.2558567613     7     7     2     2
 -0.0111916988     7     7     2     4
 0.0054164715     7     7     2     6
 0.2470241142     7     7     3     3
 0.0020632353     7     7     4     1
 -0.0111916988     7     7     4     2
 0.2469464988     7     7     4     4
 -0.0044727594     7     7     4     6
 0.2506307774     7     7     5     5
 0.0011541419     7     7     6     1
 0.0054164715     7     7     6     2
 -0.0044727594     7     7     6     4
 0.1708406144     7     7     6     6
0.0 0 0 0 0
 0.9843515241     1     1     2     2
 0.0663207030     1     1     2     4
 0.1129583059     1     1     2     6
 0.8707898231     1     1     3     3
 0.1267067887     1     1     3     7
 0.0663207030     1     1     4     2
 0.9479340582     1     1     4     4
 -0.0554033048     1     1     4     6
 0.9922691956     1     1     5     5
 0.1129583059     1     1     6     2
 -0.0554033048     1     1     6     4
 0.3159053352     1     1     6     6
 0.1267067887     1     1     7     3
 0.2841913152     1     1     7     7
 -0.9843515241     1     2     2     1
 -0.0070913545     1     2     2     4
 0.0009900880     1     2     2     6
 0.0312259522     1     2     3     3
 0.0102079275     1     2     3     7
 -0.0663207030     1     2     4     1
 0.0359187311     1     2     4     4
 -0.0059209535     1     2     4     6
 0.0405928326     1     2     5     5
 -0.1129583059     1     2     6     1
 -0.0054789404     1     2     6     4
 0.0014076795     1     2     6     6
 0.0071482554     1     2     7     3
 0.0033674992     1     2     7     7
 0.0021741241     1     3     2     7
 -0.8707898231     1     3     3     1
 -0.0312259522     1     3     3     2
 -0.0105888382     1     3     3     4
 -0.0041192831     1     3     3     6
 -0.0009427285     1     3     4     7
 -0.0018418842     1     3     6     7
 -0.1267067887     1     3     7     1
 -0.0071482554     1     3     7     2
 -0.0025698854     1     3     7     4
 -0.0034963107     1     3     7     6
 -0.0663207030     1     4     2     1
 0.0070913545     1     4     2     2
 0.0001665968     1     4     2     6
 0.0105888382     1     4     3     3
 0.0018054990     1     4     3     7
 -0.9479340582     1     4     4     1
 -0.0359187311     1     4     4     2
 -0.0079782183     1     4     4     6
 0.0135716958     1     4     5     5
 0.0554033048     1     4     6     1
 0.0054789404     1     4     6     2
 0.0031999753     1     4     6     6
 0.0025698854     1     4     7     3
 0.0020632353     1     4     7     7
 -0.9922691956     1     5     5     1
 -0.0405928326     1     5     5     2
 -0.0135716958     1     5     5     4
 -0.0076165016     1     5     5     6
 -0.1129583059     1     6     2     1
 -0.0009900880     1     6     2     2
 -0.0001665968     1     6     2     4
 0.0041192831     1     6     3     3
 0.0016021351     1     6     3     7
 0.0554033048     1     6     4     1
 0.0059209535     1     6     4     2
 0.0079782183     1     6     4     4
 0.0076165016     1     6     5     5
 -0.3159053352     1     6     6     1
 -0.0014076795     1     6     6     2
 -0.0031999753     1     6     6     4
 0.0034963107     1     6     7     3
 0.0011541419     1     6     7     7
 -0.0021741241     1     7     2     3
 -0.1267067887     1     7     3     1
 -0.0102079275     1     7     3     2
 -0.0018054990     1     7     3     4
 -0.0016021351     1     7     3     6
 0.0009427285     1     7     4     3
 0.0018418842     1     7     6     3
 -0.2841913152     1     7     7     1
 -0.0033674992     1     7     7     2
 -0.0020632353     1     7     7     4
 -0.0011541419     1     7     7     6
 -0.9843515241     2     1     1     2
 -0.0663207030     2     1     1     4
 -0.1129583059     2     1     1     6
 0.0312259522     2     1     3     3
 0.0071482554     2     1     3     7
 -0.0070913545     2     1     4     2
 0.0359187311     2     1     4     4
 -0.0054789404     2     1     4     6
 0.0405928326     2     1     5     5
 0.0009900880     2     1     6     2
 -0.0059209535     2     1     6     4
 0.0014076795     2     1     6     6
 0.0102079275     2     1     7     3
 0.0033674992     2     1     7     7
 0.9843515241     2     2     1     1
 0.0070913545     2     2     1     4
 -0.0009900880     2     2     1     6
 0.5284936642     2     2     3     3
 0.0524184394     2     2     3     7
 0.0070913545     2     2     4     1
 0.5499946938     2     2     4     4
 -0.0231463611     2     2     4     6
 0.5761782336     2     2     5     5
 -0.0009900880     2     2     6     1
 -0.0231463611     2     2     6     4
 0.2812415926     2     2     6     6
 0.0524184394     2     2     7     3
 0.2558567613     2     2     7     7
 -0.0021741241     2     3     1     7
 -0.0312259522     2     3     3     1
 -0.5284936642     2     3     3     2
 -0.0014478974     2     3     3     4
 -0.0523559523     2     3     3     6
 0.0076211910     2     3     4     7
 0.0298660694     2     3     6     7
 -0.0102079275     2     3     7     1
 -0.0524184394     2     3     7     2
 0.0016010725     2     3     7     4
 0.0205174696     2     3     7     6
 0.0663207030     2     4     1     1
 -0.0070913545     2     4     1     2
 -0.0001665968     2     4     1     6
 0.0014478974     2     4     3     3
 0.0062613871     2     4     3     7
 -0.0359187311     2     4     4     1
 -0.5499946938     2     4     4     2
 -0.0519689736     2     4     4     6
 0.0037351641     2     4     5     5
 0.0059209535     2     4     6     1
 0.0231463611     2     4     6     2
 -0.0102579781     2     4     6     6
 -0.0016010725     2     4     7     3
 -0.0111916988     2     4     7     7
 -0.0405928326     2     5     5     1
 -0.5761782336     2     5     5     2
 -0.0037351641     2     5     5     4
 -0.0513681728     2     5     5     6
 0.1129583059     2     6     1     1
 0.0009900880     2     6     1     2
 0.0001665968     2     6     1     4
 0.0523559523     2     6     3     3
 0.0091161178     2     6     3     7
 0.0054789404     2     6     4     1
 0.0231463611     2     6     4     2
 0.0519689736     2     6     4     4
 0.0513681728     2     6     5     5
 -0.0014076795     2     6     6     1
 -0.2812415926     2     6     6     2
 0.0102579781     2     6     6     4
 -0.0205174696     2     6     7     3
 0.0054164715     2     6     7     7
 0.0021741241     2     7     1     3
 -0.0071482554     2     7     3     1
 -0.0524184394     2     7     3     2
 -0.0062613871     2     7     3     4
 -0.0091161178     2     7     3     6
 -0.0076211910     2     7     4     3
 -0.0298660694     2     7     6     3
 -0.0033674992     2     7     7     1
 -0.2558567613     2     7     7     2
 0.0111916988     2     7     7     4
 -0.0054164715     2     7     7     6
 -0.8707898231     3     1     1     3
 -0.1267067887     3     1     1     7
 -0.0312259522     3     1     2     3
 -0.0071482554     3     1     2     7
 -0.0105888382     3     1     4     3
 -0.0025698854     3     1     4     7
 -0.0041192831     3     1     6     3
 -0.0034963107     3     1     6     7
 0.0021741241     3     1     7     2
 -0.0009427285     3     1     7     4
 -0.0018418842     3     1     7     6
 -0.0312259522     3     2     1     3
 -0.0102079275     3     2     1     7
 -0.5284936642     3     2     2     3
 -0.0524184394     3     2     2     7
 -0.0014478974     3     2     4     3
 0.0016010725     3     2     4     7
 -0.0523559523     3     2     6     3
 0.0205174696     3     2     6     7
 -0.0021741241     3     2     7     1
 0.0076211910     3     2     7     4
 0.0298660694     3     2     7     6
 0.8707898231     3     3     1     1
 0.0312259522     3     3     1     2
 0.0105888382     3     3     1     4
 0.0041192831     3     3     1     6
 0.0312259522     3     3     2     1
 0.5284936642     3     3     2     2
 0.0014478974     3     3     2     4
 0.0523559523     3     3     2     6
 0.0105888382     3     3     4     1
 0.0014478974     3     3     4     2
 0.5620994635     3     3     4     4
 -0.0261585014     3     3     4     6
 0.5845612562     3     3     5     5
 0.0041192831     3     3     6     1
 0.0523559523     3     3     6     2
 -0.0261585014     3     3     6     4
 0.2840610767     3     3     6     6
 0.2470241142     3     3     7     7
 -0.0105888382     3     4     1     3
 -0.0018054990     3     4     1     7
 -0.0014478974     3     4     2     3
 -0.0062613871     3     4     2     7
 -0.5620994635     3     4     4     3
 -0.0644062770     3     4     4     7
 0.0261585014     3     4     6     3
 -0.0015632358     3     4     6     7
 0.0009427285     3     4     7     1
 -0.0076211910     3     4     7     2
 -0.0070957057     3     4     7     6
 -0.5845612562     3     5     5     3
 -0.0664329316     3     5     5     7
 -0.0041192831     3     6     1     3
 -0.0016021351     3     6     1     7
 -0.0523559523     3     6     2     3
 -0.0091161178     3     6     2     7
 0.0261585014     3     6     4     3
 0.0052199650     3     6     4     7
 -0.2840610767     3     6     6     3
 -0.0200130768     3     6     6     7
 0.0018418842     3     6     7     1
 -0.0298660694     3     6     7     2
 0.0070957057     3     6     7     4
 0.1267067887     3     7     1     1
 0.0102079275     3     7     1     2
 0.0018054990     3     7     1     4
 0.0016021351     3     7     1     6
 0.0071482554     3     7     2     1
 0.0524184394     3     7     2     2
 0.0062613871     3     7     2     4
 0.0091161178     3     7     2     6
 0.0025698854     3     7     4     1
 -0.0016010725     3     7     4     2
 0.0644062770     3     7     4     4
 -0.0052199650     3     7     4     6
 0.0664329316     3     7     5     5
 0.0034963107     3     7     6     1
 -0.0205174696     3     7     6     2
 0.0015632358     3     7     6     4
 0.0200130768     3     7     6     6