&FCI NORB= 15,NELEC= 16,MS2=0,
 ORBSYM=1,1,1,1,1,1,1,1,1,1,1,1,1,1,1
 ISYM=1,
&END
 0.3951957608     1     1     2     2
 0.0000000002     1     1     2     3
 0.0050436793     1     1     2     4
 0.0000000006     1     1     2     7
 -0.0000000001     1     1     2    10
 0.0014862780     1     1     2    11
 0.0008084215     1     1     2    14
 -0.0000000001     1     1     2    15
 0.0000000002     1     1     3     2
 0.6005954666     1     1     3     3
 0.0000000121     1     1     3     4
 0.1106061749     1     1     3     7
 0.0348119276     1     1     3    10
 0.0000000028     1     1     3    11
 -0.0000000007     1     1     3    14
 -0.0259452275     1     1     3    15
 0.0050436793     1     1     4     2
 0.0000000121     1     1     4     3
 0.4826043647     1     1     4     4
 -0.0000000107     1     1     4     7
 0.0000000033     1     1     4    10
 0.0598918109     1     1     4    11
 -0.0087616588     1     1     4    14
 0.0000000004     1     1     4    15
 0.4799510848     1     1     5     5
 -0.0000000119     1     1     5     6
 -0.0000000068     1     1     5     8
 -0.0228271226     1     1     5     9
 -0.0000000005     1     1     5    12
 0.0660457335     1     1     5    13
 -0.0000000119     1     1     6     5
 0.4803599680     1     1     6     6
 -0.0376663817     1     1     6     8
 -0.0000000043     1     1     6     9
 0.0647712695     1     1     6    12
 -0.0000000045     1     1     6    13
 0.0000000006     1     1     7     2
 0.1106061749     1     1     7     3
 -0.0000000107     1     1     7     4
 0.5618907434     1     1     7     7
 -0.0470131299     1     1     7    10
 -0.0000000010     1     1     7    11
 -0.0000000012     1     1     7    14
 -0.0569321992     1     1     7    15
 -0.0000000068     1     1     8     5
 -0.0376663817     1     1     8     6
 0.5049984143     1     1     8     8
 0.0000000082     1     1     8     9
 -0.0051604189     1     1     8    12
 -0.0000000002     1     1     8    13
 -0.0228271226     1     1     9     5
 -0.0000000043     1     1     9     6
 0.0000000082     1     1     9     8
 0.4422299519     1     1     9     9
 -0.0000000001     1     1     9    12
 -0.0011936115     1     1     9    13
 -0.0000000001     1     1    10     2
 0.0348119276     1     1    10     3
 0.0000000033     1     1    10     4
 -0.0470131299     1     1    10     7
 0.2195166385     1     1    10    10
 0.0000000031     1     1    10    11
 0.0000000001     1     1    10    14
 -0.0089025510     1     1    10    15
 0.0014862780     1     1    11     2
 0.0000000028     1     1    11     3
 0.0598918109     1     1    11     4
 -0.0000000010     1     1    11     7
 0.0000000031     1     1    11    10
 0.2138353263     1     1    11    11
 0.0063035116     1     1    11    14
 0.0000000015     1     1    11    15
 -0.0000000005     1     1    12     5
 0.0647712695     1     1    12     6
 -0.0051604189     1     1    12     8
 -0.0000000001     1     1    12     9
 0.2112028433     1     1    12    12
 -0.0000000026     1     1    12    13
 0.0660457335     1     1    13     5
 -0.0000000045     1     1    13     6
 -0.0000000002     1     1    13     8
 -0.0011936115     1     1    13     9
 -0.0000000026     1     1    13    12
 0.2122650097     1     1    13    13
 0.0008084215     1     1    14     2
 -0.0000000007     1     1    14     3
 -0.0087616588     1     1    14     4
 -0.0000000012     1     1    14     7
 0.0000000001     1     1    14    10
 0.0063035116     1     1    14    11
 0.2254800116     1     1    14    14
 -0.0000000024     1     1    14    15
 -0.0000000001     1     1    15     2
 -0.0259452275     1     1    15     3
 0.0000000004     1     1    15     4
 -0.0569321992     1     1    15     7
 -0.0089025510     1     1    15    10
 0.0000000015     1     1    15    11
 -0.0000000024     1     1    15    14
 0.2420833428     1     1    15    15
 -0.3951957608     1     2     2     1
 -0.0044091724     1     2     2     3
 0.0000000002     1     2     2     4
 -0.0127456547     1     2     2     7
 0.0024222661     1     2     2    10
 0.0031087037     1     2     2    15
 -0.0000000002     1     2     3     1
 -0.1483014838     1     2     3     4
 -0.0348581460     1     2     3    11
 0.0089724981     1     2     3    14
 -0.0050436793     1     2     4     1
 -0.1484197312     1     2     4     3
 0.1320013452     1     2     4     7
 -0.0411274846     1     2     4    10
 -0.0050112959     1     2     4    15
 0.0000000009     1     2     5     5
 0.1466774022     1     2     5     6
 0.0819107902     1     2     5     8
 0.0000000002     1     2     5     9
 0.0298022197     1     2     5    12
 -0.0000000007     1     2     5    13
 0.1466674585     1     2     6     5
 -0.0000000010     1     2     6     6
 -0.0000000002     1     2     6     8
 0.0545769173     1     2     6     9
 0.0000000007     1     2     6    12
 0.0308449442     1     2     6    13
 -0.0000000006     1     2     7     1
 0.1323316522     1     2     7     4
 0.0126316372     1     2     7    11
 0.0139989707     1     2     7    14
 0.0816638405     1     2     8     5
 -0.0000000002     1     2     8     6
 -0.0000000001     1     2     8     8
 -0.1015181658     1     2     8     9
 0.0000000001     1     2     8    12
 0.0044003799     1     2     8    13
 0.0000000002     1     2     9     5
 0.0543700762     1     2     9     6
 -0.1015042379     1     2     9     8
 0.0000000001     1     2     9     9
 0.0015667578     1     2     9    12
 -0.0000000001     1     2     9    13
 0.0000000001     1     2    10     1
 -0.0411819988     1     2    10     4
 0.0000000001     1     2    10    10
 -0.0381845571     1     2    10    11
 -0.0015388708     1     2    10    14
 -0.0014862780     1     2    11     1
 -0.0348771617     1     2    11     3
 0.0125371236     1     2    11     7
 -0.0381654201     1     2    11    10
 -0.0000000001     1     2    11    11
 -0.0191619020     1     2    11    15
 0.0297864490     1     2    12     5
 0.0000000007     1     2    12     6
 0.0000000001     1     2    12     8
 0.0016480991     1     2    12     9
 0.0000000017     1     2    12    12
 0.0322123071     1     2    12    13
 -0.0000000007     1     2    13     5
 0.0308321186     1     2    13     6
 0.0045024251     1     2    13     8
 -0.0000000001     1     2    13     9
 0.0322124683     1     2    13    12
 -0.0000000017     1     2    13    13
 -0.0008084215     1     2    14     1
 0.0089538710     1     2    14     3
 0.0139510031     1     2    14     7
 -0.0015297808     1     2    14    10
 0.0297538796     1     2    14    15
 0.0000000001     1     2    15     1
 -0.0050891266     1     2    15     4
 -0.0191861374     1     2    15    11
 0.0297412526     1     2    15    14
 -0.0000000002     1     3     2     1
 0.0044091724     1     3     2     2
 0.0001196560     1     3     2     4
 0.0000300183     1     3     2    11
 0.0000178541     1     3     2    14
 -0.6005954666     1     3     3     1
 0.0000000001     1     3     3     4
 -0.0094787754     1     3     3     7
 0.0026346603     1     3     3    10
 0.0023550503     1     3     3    15
 -0.0000000121     1     3     4     1
 0.1484197312     1     3     4     2
 -0.0052486716     1     3     4     4
 0.0000000004     1     3     4     7
 -0.0000000001     1     3     4    10
 -0.0012404008     1     3     4    11
 -0.0007950213     1     3     4    14
 -0.0000000001     1     3     4    15
 -0.0110823373     1     3     5     5
 0.0000000005     1     3     5     6
 0.0000000003     1     3     5     8
 0.0017472685     1     3     5     9
 -0.0040315768     1     3     5    13
 0.0000000005     1     3     6     5
 -0.0110357369     1     3     6     6
 0.0025353012     1     3     6     8
 0.0000000003     1     3     6     9
 -0.0039579992     1     3     6    12
 0.0000000002     1     3     6    13
 -0.1106061749     1     3     7     1
 0.0000000005     1     3     7     4
 -0.0177837701     1     3     7     7
 0.0047234976     1     3     7    10
 0.0000000001     1     3     7    11
 0.0034159037     1     3     7    15
 0.0000000002     1     3     8     5
 0.0021400399     1     3     8     6
 -0.0119154032     1     3     8     8
 -0.0000000004     1     3     8     9
 0.0005699888     1     3     8    12
 0.0011735527     1     3     9     5
 0.0000000001     1     3     9     6
 -0.0000000003     1     3     9     8
 -0.0077533689     1     3     9     9
 0.0003382657     1     3     9    13
 -0.0348119276     1     3    10     1
 -0.0000000001     1     3    10     4
 0.0021681707     1     3    10     7
 -0.0008302627     1     3    10    10
 -0.0006778839     1     3    10    15
 -0.0000000028     1     3    11     1
 0.0348771617     1     3    11     2
 -0.0008638837     1     3    11     4
 -0.0005839587     1     3    11    11
 -0.0000032262     1     3    11    14
 -0.0026621139     1     3    12     6
 0.0003005387     1     3    12     8
 -0.0013785938     1     3    12    12
 -0.0027435698     1     3    13     5
 0.0000000002     1     3    13     6
 0.0002200097     1     3    13     9
 -0.0014455967     1     3    13    13
 0.0000000007     1     3    14     1
 -0.0089538710     1     3    14     2
 -0.0005926821     1     3    14     4
 -0.0000273743     1     3    14    11
 -0.0002073780     1     3    14    14
 0.0259452275     1     3    15     1
 -0.0000000001     1     3    15     4
 0.0026011544     1     3    15     7
 -0.0011149699     1     3    15    10
 -0.0008615792     1     3    15    15
 -0.0050436793     1     4     2     1
 -0.0000000002     1     4     2     2
 -0.0001196560     1     4     2     3
 -0.0003315987     1     4     2     7
 0.0000639437     1     4     2    10
 0.0000830754     1     4     2    15
 -0.0000000121     1     4     3     1
 0.1483014838     1     4     3     2
 -0.0000000001     1     4     3     3
 -0.0000000001     1     4     3     7
 -0.0002377460     1     4     3    11
 -0.0001428802     1     4     3    14
 -0.4826043647     1     4     4     1
 0.0052486716     1     4     4     3
 0.0026065179     1     4     4     7
 0.0001160603     1     4     4    10
 -0.0013288758     1     4     4    15
 -0.0000000004     1     4     5     5
 0.0064583352     1     4     5     6
 0.0017888654     1     4     5     8
 0.0030132983     1     4     5    12
 -0.0000000002     1     4     5    13
 0.0065064477     1     4     6     5
 -0.0000000004     1     4     6     6
 0.0000000001     1     4     6     8
 0.0007941784     1     4     6     9
 -0.0000000001     1     4     6    12
 0.0031519480     1     4     6    13
 0.0000000107     1     4     7     1
 -0.1323316522     1     4     7     2
 -0.0000000005     1     4     7     3
 -0.0000000006     1     4     7     7
 0.0000000001     1     4     7    10
 0.0002091434     1     4     7    11
 0.0008075846     1     4     7    14
 0.0000000002     1     4     7    15
 0.0040159202     1     4     8     5
 0.0000000001     1     4     8     6
 -0.0000000005     1     4     8     8
 -0.0059159729     1     4     8     9
 0.0016995316     1     4     8    13
 0.0023071370     1     4     9     6
 -0.0053631753     1     4     9     8
 -0.0000000003     1     4     9     9
 0.0015615582     1     4     9    12
 -0.0000000001     1     4     9    13
 -0.0000000033     1     4    10     1
 0.0411819988     1     4    10     2
 0.0000000001     1     4    10     3
 0.0000000001     1     4    10     7
 0.0004204984     1     4    10    11
 -0.0002343058     1     4    10    14
 -0.0598918109     1     4    11     1
 0.0008638837     1     4    11     3
 0.0005983723     1     4    11     7
 0.0004924958     1     4    11    10
 0.0002308890     1     4    11    15
 0.0017615123     1     4    12     5
 0.0006150395     1     4    12     9
 0.0005750670     1     4    12    13
 -0.0000000001     1     4    13     5
 0.0018422885     1     4    13     6
 0.0005036654     1     4    13     8
 0.0005730325     1     4    13    12
 -0.0000000001     1     4    13    13
 0.0087616588     1     4    14     1
 0.0005926821     1     4    14     3
 0.0008785426     1     4    14     7
 -0.0001810746     1     4    14    10
 -0.0011144088     1     4    14    15
 -0.0000000004     1     4    15     1
 0.0050891266     1     4    15     2
 0.0000000001     1     4    15     3
 0.0000000001     1     4    15     7
 0.0005461022     1     4    15    11
 -0.0009205152     1     4    15    14
 0.0000080555     1     5     2     6
 0.0002434438     1     5     2     8
 0.0000117524     1     5     2    12
 0.0000000001     1     5     3     8
 0.0003290541     1     5     3     9
 -0.0009425776     1     5     3    13
 -0.0000458001     1     5     4     6
 -0.0022131013     1     5     4     8
 0.0010370877     1     5     4    12
 -0.0000000001     1     5     4    13
 -0.4799510848     1     5     5     1
 -0.0000000009     1     5     5     2
 0.0110823373     1     5     5     3
 0.0000000004     1     5     5     4
 -0.0034095378     1     5     5     7
 0.0020154613     1     5     5    10
 0.0000000001     1     5     5    11
 -0.0000000001     1     5     5    14
 0.0009349130     1     5     5    15
 0.0000000119     1     5     6     1
 -0.1466674585     1     5     6     2
 -0.0000000005     1     5     6     3
 -0.0065064477     1     5     6     4
 -0.0000000001     1     5     6     7
 -0.0011160194     1     5     6    11
 0.0020561223     1     5     6    14
 0.0000000001     1     5     6    15
 0.0000000001     1     5     7     8
 -0.0009865710     1     5     7     9
 0.0010696542     1     5     7    13
 0.0000000068     1     5     8     1
 -0.0816638405     1     5     8     2
 -0.0000000002     1     5     8     3
 -0.0040159202     1     5     8     4
 -0.0009629883     1     5     8    11
 0.0001961696     1     5     8    14
 0.0228271226     1     5     9     1
 -0.0000000002     1     5     9     2
 -0.0011735527     1     5     9     3
 0.0005354124     1     5     9     7
 -0.0004651057     1     5     9    10
 -0.0003934736     1     5     9    15
 0.0000950557     1     5    10     9
 0.0011478614     1     5    10    13
 -0.0000042891     1     5    11     6
 -0.0000117462     1     5    11     8
 -0.0009617178     1     5    11    12
 0.0000000001     1     5    11    13
 0.0000000005     1     5    12     1
 -0.0297864490     1     5    12     2
 -0.0017615123     1     5    12     4
 -0.0015469922     1     5    12    11
 -0.0000828636     1     5    12    14
 -0.0660457335     1     5    13     1
 0.0000000007     1     5    13     2
 0.0027435698     1     5    13     3
 0.0000000001     1     5    13     4
 -0.0004812575     1     5    13     7
 0.0019662024     1     5    13    10
 0.0000000001     1     5    13    11
 0.0001050605     1     5    13    15
 0.0000140596     1     5    14     6
 0.0002095438     1     5    14     8
 -0.0008057556     1     5    14    12
 0.0001566068     1     5    15     9
 -0.0003486155     1     5    15    13
 -0.0000080555     1     6     2     5
 0.0002037842     1     6     2     9
 0.0000079763     1     6     2    13
 0.0003376239     1     6     3     8
 0.0000000001     1     6     3     9
 -0.0009468313     1     6     3    12
 0.0000458001     1     6     4     5
 -0.0019466127     1     6     4     9
 -0.0000000001     1     6     4    12
 0.0010932742     1     6     4    13
 0.0000000119     1     6     5     1
 -0.1466774022     1     6     5     2
 -0.0000000005     1     6     5     3
 -0.0064583352     1     6     5     4
 -0.0000000001     1     6     5     7
 -0.0011212467     1     6     5    11
 0.0020375609     1     6     5    14
 0.0000000001     1     6     5    15
 -0.4803599680     1     6     6     1
 0.0000000010     1     6     6     2
 0.0110357369     1     6     6     3
 0.0000000004     1     6     6     4
 -0.0034499125     1     6     6     7
 0.0020214844     1     6     6    10
 0.0000000001     1     6     6    11
 -0.0000000001     1     6     6    14
 0.0009693305     1     6     6    15
 -0.0011538730     1     6     7     8
 0.0000000001     1     6     7     9
 0.0010043963     1     6     7    12
 -0.0000000001     1     6     7    13
 0.0376663817     1     6     8     1
 0.0000000002     1     6     8     2
 -0.0021400399     1     6     8     3
 -0.0000000001     1     6     8     4
 0.0007764066     1     6     8     7
 -0.0007023553     1     6     8    10
 -0.0004807991     1     6     8    15
 0.0000000043     1     6     9     1
 -0.0543700762     1     6     9     2
 -0.0000000001     1     6     9     3
 -0.0023071370     1     6     9     4
 -0.0005846418     1     6     9    11
 0.0001074529     1     6     9    14
 0.0000190263     1     6    10     8
 0.0011499636     1     6    10    12
 -0.0000000001     1     6    10    13
 0.0000042891     1     6    11     5
 -0.0000626754     1     6    11     9
 -0.0009586825     1     6    11    13
 -0.0647712695     1     6    12     1
 -0.0000000007     1     6    12     2
 0.0026621139     1     6    12     3
 -0.0004662405     1     6    12     7
 0.0019419269     1     6    12    10
 0.0000891773     1     6    12    15
 0.0000000045     1     6    13     1
 -0.0308321186     1     6    13     2
 -0.0000000002     1     6    13     3
 -0.0018422885     1     6    13     4
 -0.0000000001     1     6    13    10
 -0.0015774746     1     6    13    11
 -0.0000456283     1     6    13    14
 -0.0000140596     1     6    14     5
 0.0001166941     1     6    14     9
 -0.0007892153     1     6    14    13
 0.0001955420     1     6    15     8
 -0.0003580521     1     6    15    12
 -0.0000000006     1     7     2     1
 0.0127456547     1     7     2     2
 0.0003315987     1     7     2     4
 0.0000980019     1     7     2    11
 0.0000511239     1     7     2    14
 -0.1106061749     1     7     3     1
 0.0094787754     1     7     3     3
 0.0000000001     1     7     3     4
 0.0023213570     1     7     3    10
 0.0000000001     1     7     3    11
 0.0005011838     1     7     3    15
 0.0000000107     1     7     4     1
 -0.1320013452     1     7     4     2
 -0.0000000004     1     7     4     3
 -0.0026065179     1     7     4     4
 -0.0004113258     1     7     4    11
 -0.0001616422     1     7     4    14
 0.0000000001     1     7     4    15
 0.0034095378     1     7     5     5
 0.0000000001     1     7     5     6
 0.0000000001     1     7     5     8
 -0.0015604037     1     7     5     9
 0.0000000001     1     7     5    12
 0.0016402893     1     7     5    13
 0.0000000001     1     7     6     5
 0.0034499125     1     7     6     6
 -0.0018690135     1     7     6     8
 0.0000000001     1     7     6     9
 0.0015682731     1     7     6    12
 -0.0000000001     1     7     6    13
 -0.5618907434     1     7     7     1
 0.0177837701     1     7     7     3
 0.0000000006     1     7     7     4
 0.0041223429     1     7     7    10
 0.0000000002     1     7     7    11
 -0.0018914521     1     7     7    15
 -0.0007764066     1     7     8     6
 0.0029237121     1     7     8     8
 -0.0000000001     1     7     8     9
 0.0000557839     1     7     8    12
 -0.0000000001     1     7     8    13
 -0.0005354124     1     7     9     5
 -0.0000000001     1     7     9     8
 0.0021230764     1     7     9     9
 -0.0000180404     1     7     9    13
 0.0470131299     1     7    10     1
 -0.0021681707     1     7    10     3
 -0.0000000001     1     7    10     4
 -0.0003840332     1     7    10    10
 -0.0000000001     1     7    10    11
 -0.0001964777     1     7    10    15
 0.0000000010     1     7    11     1
 -0.0125371236     1     7    11     2
 -0.0005983723     1     7    11     4
 -0.0000000001     1     7    11    10
 -0.0004564074     1     7    11    11
 0.0004710768     1     7    11    14
 -0.0000000001     1     7    11    15
 0.0004662405     1     7    12     6
 -0.0002052954     1     7    12     8
 0.0003136342     1     7    12    12
 0.0000000001     1     7    12    13
 0.0004812575     1     7    13     5
 -0.0002403603     1     7    13     9
 0.0000000001     1     7    13    12
 0.0003261922     1     7    13    13
 0.0000000012     1     7    14     1
 -0.0139510031     1     7    14     2
 -0.0008785426     1     7    14     4
 0.0002939048     1     7    14    11
 -0.0000933393     1     7    14    14
 0.0000000001     1     7    14    15
 0.0569321992     1     7    15     1
 -0.0026011544     1     7    15     3
 -0.0000000001     1     7    15     4
 -0.0015355323     1     7    15    10
 -0.0000000001     1     7    15    11
 0.0000000001     1     7    15    14
 0.0000898515     1     7    15    15
 -0.0002434438     1     8     2     5
 -0.0000129099     1     8     2     9
 -0.0001030345     1     8     2    13
 -0.0000000001     1     8     3     5
 -0.0003376239     1     8     3     6
 0.0002116678     1     8     3    12
 0.0022131013     1     8     4     5
 0.0000936497     1     8     4     9
 0.0011306493     1     8     4    13
 0.0000000068     1     8     5     1
 -0.0819107902     1     8     5     2
 -0.0000000003     1     8     5     3
 -0.0017888654     1     8     5     4
 -0.0000000001     1     8     5     7
 -0.0009072263     1     8     5    11
 -0.0000608246     1     8     5    14
 0.0376663817     1     8     6     1
 0.0000000002     1     8     6     2
 -0.0025353012     1     8     6     3
 -0.0000000001     1     8     6     4
 0.0018690135     1     8     6     7
 -0.0007101363     1     8     6    10
 -0.0007296027     1     8     6    15
 -0.0000000001     1     8     7     5
 0.0011538730     1     8     7     6
 0.0002397887     1     8     7    12
 -0.0000000001     1     8     7    13
 -0.5049984143     1     8     8     1
 0.0000000001     1     8     8     2
 0.0119154032     1     8     8     3
 0.0000000005     1     8     8     4
 -0.0029237121     1     8     8     7
 0.0028835251     1     8     8    10
 0.0000000002     1     8     8    11
 0.0002442228     1     8     8    15
 -0.0000000082     1     8     9     1
 0.1015042379     1     8     9     2
 0.0000000003     1     8     9     3
 0.0053631753     1     8     9     4
 0.0000000001     1     8     9     7
 0.0023737814     1     8     9    11
 0.0003752623     1     8     9    14
 -0.0000190263     1     8    10     6
 -0.0006491733     1     8    10    12
 0.0000117462     1     8    11     5
 0.0002175503     1     8    11     9
 0.0003435868     1     8    11    13
 0.0051604189     1     8    12     1
 -0.0000000001     1     8    12     2
 -0.0003005387     1     8    12     3
 0.0002052954     1     8    12     7
 -0.0007840891     1     8    12    10
 -0.0000244907     1     8    12    15
 0.0000000002     1     8    13     1
 -0.0045024251     1     8    13     2
 -0.0005036654     1     8    13     4
 -0.0000476005     1     8    13    11
 0.0004059066     1     8    13    14
 -0.0002095438     1     8    14     5
 0.0002426352     1     8    14     9
 0.0004132899     1     8    14    13
 -0.0001955420     1     8    15     6
 0.0001052575     1     8    15    12
 -0.0002037842     1     9     2     6
 0.0000129099     1     9     2     8
 -0.0000866473     1     9     2    12
 -0.0003290541     1     9     3     5
 -0.0000000001     1     9     3     6
 0.0001142286     1     9     3    13
 0.0019466127     1     9     4     6
 -0.0000936497     1     9     4     8
 0.0009597561     1     9     4    12
 -0.0000000001     1     9     4    13
 0.0228271226     1     9     5     1
 -0.0000000002     1     9     5     2
 -0.0017472685     1     9     5     3
 0.0015604037     1     9     5     7
 -0.0005429514     1     9     5    10
 -0.0005598957     1     9     5    15
 0.0000000043     1     9     6     1
 -0.0545769173     1     9     6     2
 -0.0000000003     1     9     6     3
 -0.0007941784     1     9     6     4
 -0.0000000001     1     9     6     7
 -0.0005420795     1     9     6    11
 -0.0000224623     1     9     6    14
 0.0009865710     1     9     7     5
 -0.0000000001     1     9     7     6
 0.0002098538     1     9     7    13
 -0.0000000082     1     9     8     1
 0.1015181658     1     9     8     2
 0.0000000004     1     9     8     3
 0.0059159729     1     9     8     4
 0.0000000001     1     9     8     7
 0.0000000001     1     9     8    10
 0.0023837001     1     9     8    11
 0.0001101764     1     9     8    14
 -0.4422299519     1     9     9     1
 -0.0000000001     1     9     9     2
 0.0077533689     1     9     9     3
 0.0000000003     1     9     9     4
 -0.0021230764     1     9     9     7
 0.0018050688     1     9     9    10
 0.0000000001     1     9     9    11
 0.0002155745     1     9     9    15
 -0.0000950557     1     9    10     5
 -0.0005100415     1     9    10    13
 0.0000626754     1     9    11     6
 -0.0002175503     1     9    11     8
 0.0002590261     1     9    11    12
 0.0000000001     1     9    12     1
 -0.0016480991     1     9    12     2
 -0.0006150395     1     9    12     4
 -0.0001148705     1     9    12    11
 0.0003184862     1     9    12    14
 0.0011936115     1     9    13     1
 0.0000000001     1     9    13     2
 -0.0002200097     1     9    13     3
 0.0002403603     1     9    13     7
 -0.0006013312     1     9    13    10
 -0.0000423548     1     9    13    15
 -0.0001166941     1     9    14     6
 -0.0002426352     1     9    14     8
 0.0003478970     1     9    14    12
 -0.0001566068     1     9    15     5
 0.0000776392     1     9    15    13
 0.0000000001     1    10     2     1
 -0.0024222661     1    10     2     2
 -0.0000639437     1    10     2     4
 -0.0000212703     1    10     2    11
 -0.0000096396     1    10     2    14
 -0.0348119276     1    10     3     1
 -0.0026346603     1    10     3     3
 -0.0023213570     1    10     3     7
 0.0004679701     1    10     3    15
 -0.0000000033     1    10     4     1
 0.0411274846     1    10     4     2
 0.0000000001     1    10     4     3
 -0.0001160603     1    10     4     4
 -0.0000714055     1    10     4    11
 -0.0000600583     1    10     4    14
 -0.0020154613     1    10     5     5
 0.0005429514     1    10     5     9
 -0.0008577338     1    10     5    13
 -0.0020214844     1    10     6     6
 0.0007101363     1    10     6     8
 -0.0008288648     1    10     6    12
 0.0470131299     1    10     7     1
 -0.0047234976     1    10     7     3
 -0.0000000001     1    10     7     4
 -0.0041223429     1    10     7     7
 0.0013764409     1    10     7    15
 0.0007023553     1    10     8     6
 -0.0028835251     1    10     8     8
 -0.0000000001     1    10     8     9
 0.0001442223     1    10     8    12
 0.0004651057     1    10     9     5
 -0.0018050688     1    10     9     9
 0.0000918513     1    10     9    13
 -0.2195166385     1    10    10     1
 -0.0000000001     1    10    10     2
 0.0008302627     1    10    10     3
 0.0003840332     1    10    10     7
 -0.0000783595     1    10    10    15
 -0.0000000031     1    10    11     1
 0.0381654201     1    10    11     2
 -0.0004924958     1    10    11     4
 0.0000000001     1    10    11     7
 -0.0001159254     1    10    11    11
 -0.0002338976     1    10    11    14
 -0.0019419269     1    10    12     6
 0.0007840891     1    10    12     8
 -0.0007957286     1    10    12    12
 -0.0019662024     1    10    13     5
 0.0000000001     1    10    13     6
 0.0006013312     1    10    13     9
 -0.0008178282     1    10    13    13
 -0.0000000001     1    10    14     1
 0.0015297808     1    10    14     2
 0.0001810746     1    10    14     4
 -0.0000642733     1    10    14    11
 0.0000350944     1    10    14    14
 0.0089025510     1    10    15     1
 0.0011149699     1    10    15     3
 0.0015355323     1    10    15     7
 -0.0003868451     1    10    15    15
 -0.0014862780     1    11     2     1
 -0.0000300183     1    11     2     3
 -0.0000980019     1    11     2     7
 0.0000212703     1    11     2    10
 0.0000256987     1    11     2    15
 -0.0000000028     1    11     3     1
 0.0348581460     1    11     3     2
 0.0002377460     1    11     3     4
 -0.0000000001     1    11     3     7
 0.0000309759     1    11     3    14
 -0.0598918109     1    11     4     1
 0.0012404008     1    11     4     3
 0.0004113258     1    11     4     7
 0.0000714055     1    11     4    10
 -0.0003135626     1    11     4    15
 -0.0000000001     1    11     5     5
 0.0011212467     1    11     5     6
 0.0009072263     1    11     5     8
 0.0006297574     1    11     5    12
 0.0011160194     1    11     6     5
 -0.0000000001     1    11     6     6
 0.0005420795     1    11     6     9
 0.0006690654     1    11     6    13
 0.0000000010     1    11     7     1
 -0.0126316372     1    11     7     2
 -0.0000000001     1    11     7     3
 -0.0002091434     1    11     7     4
 -0.0000000002     1    11     7     7
 0.0002101178     1    11     7    14
 0.0009629883     1    11     8     5
 -0.0000000002     1    11     8     8
 -0.0023837001     1    11     8     9
 0.0004142766     1    11     8    13
 0.0005846418     1    11     9     6
 -0.0023737814     1    11     9     8
 -0.0000000001     1    11     9     9
 0.0003730379     1    11     9    12
 -0.0000000031     1    11    10     1
 0.0381845571     1    11    10     2
 -0.0004204984     1    11    10     4
 0.0000000001     1    11    10     7
 -0.0001698101     1    11    10    14
 -0.2138353263     1    11    11     1
 0.0000000001     1    11    11     2
 0.0005839587     1    11    11     3
 0.0004564074     1    11    11     7
 0.0001159254     1    11    11    10
 0.0000057785     1    11    11    15
 0.0015469922     1    11    12     5
 0.0001148705     1    11    12     9
 0.0005581526     1    11    12    13
 -0.0000000001     1    11    13     5
 0.0015774746     1    11    13     6
 0.0000476005     1    11    13     8
 0.0005518169     1    11    13    12