&FCI NORB= 14,NELEC= 10,MS2=0,
 ORBSYM=1,1,1,1,1,1,1,1,1,1,1,1,1,1
 ISYM=1,
&END
 0.9899555961     1     1     2     2
 -0.0163981931     1     1     2     3
 0.0757414310     1     1     2     4
 -0.1296143286     1     1     2     6
 0.0442742456     1     1     2     7
 0.0572082320     1     1     2     8
 0.0702774352     1     1     2     9
 0.0279573494     1     1     2    10
 0.0414292258     1     1     2    12
 -0.0753761596     1     1     2    13
 -0.0163981931     1     1     3     2
 0.8467848029     1     1     3     3
 -0.0567938938     1     1     3     4
 0.0642211696     1     1     3     6
 0.1579086492     1     1     3     7
 -0.0822267437     1     1     3     8
 0.0230998645     1     1     3     9
 0.1143706484     1     1     3    10
 -0.1025096733     1     1     3    12
 -0.1745680825     1     1     3    13
 0.0757414310     1     1     4     2
 -0.0567938938     1     1     4     3
 0.8982129085     1     1     4     4
 0.1352682401     1     1     4     6
 0.0379845397     1     1     4     7
 -0.0961212062     1     1     4     8
 0.0447572195     1     1     4     9
 -0.2142970760     1     1     4    10
 -0.0726588541     1     1     4    12
 -0.0468869560     1     1     4    13
 1.0045374865     1     1     5     5
 0.2669379118     1     1     5    11
 -0.1369498958     1     1     5    14
 -0.1296143286     1     1     6     2
 0.0642211696     1     1     6     3
 0.1352682401     1     1     6     4
 0.3705217928     1     1     6     6
 0.0224831281     1     1     6     7
 -0.1290936827     1     1     6     8
 -0.0254093669     1     1     6     9
 -0.0758394193     1     1     6    10
 -0.0829652989     1     1     6    12
 -0.0144598981     1     1     6    13
 0.0442742456     1     1     7     2
 0.1579086492     1     1     7     3
 0.0379845397     1     1     7     4
 0.0224831281     1     1     7     6
 0.3072623810     1     1     7     7
 -0.0751707932     1     1     7     8
 0.0472189700     1     1     7     9
 0.0515704111     1     1     7    10
 -0.0633007199     1     1     7    12
 -0.1343516290     1     1     7    13
 0.0572082320     1     1     8     2
 -0.0822267437     1     1     8     3
 -0.0961212062     1     1     8     4
 -0.1290936827     1     1     8     6
 -0.0751707932     1     1     8     7
 0.3903307572     1     1     8     8
 -0.0113576728     1     1     8     9
 0.0255791064     1     1     8    10
 0.0462799559     1     1     8    12
 0.0453235095     1     1     8    13
 0.0702774352     1     1     9     2
 0.0230998645     1     1     9     3
 0.0447572195     1     1     9     4
 -0.0254093669     1     1     9     6
 0.0472189700     1     1     9     7
 -0.0113576728     1     1     9     8
 0.3711162144     1     1     9     9
 0.0142287851     1     1     9    10
 -0.0167143529     1     1     9    12
 -0.0436130870     1     1     9    13
 0.0279573494     1     1    10     2
 0.1143706484     1     1    10     3
 -0.2142970760     1     1    10     4
 -0.0758394193     1     1    10     6
 0.0515704111     1     1    10     7
 0.0255791064     1     1    10     8
 0.0142287851     1     1    10     9
 0.4701028558     1     1    10    10
 0.0222959990     1     1    10    12
 -0.0410754690     1     1    10    13
 0.2669379118     1     1    11     5
 0.4950692768     1     1    11    11
 -0.0848249091     1     1    11    14
 0.0414292258     1     1    12     2
 -0.1025096733     1     1    12     3
 -0.0726588541     1     1    12     4
 -0.0829652989     1     1    12     6
 -0.0633007199     1     1    12     7
 0.0462799559     1     1    12     8
 -0.0167143529     1     1    12     9
 0.0222959990     1     1    12    10
 0.3928745757     1     1    12    12
 0.0460533480     1     1    12    13
 -0.0753761596     1     1    13     2
 -0.1745680825     1     1    13     3
 -0.0468869560     1     1    13     4
 -0.0144598981     1     1    13     6
 -0.1343516290     1     1    13     7
 0.0453235095     1     1    13     8
 -0.0436130870     1     1    13     9
 -0.0410754690     1     1    13    10
 0.0460533480     1     1    13    12
 0.4404709199     1     1    13    13
 -0.1369498958     1     1    14     5
 -0.0848249091     1     1    14    11
 0.3934885799     1     1    14    14
 -0.9899555961     1     2     2     1
 -0.0038036798     1     2     2     3
 0.0040252163     1     2     2     4
 0.0007154189     1     2     2     6
 -0.0012576136     1     2     2     7
 -0.0001373264     1     2     2     8
 -0.0000941809     1     2     2     9
 -0.0039099316     1     2     2    10
 0.0002267341     1     2     2    12
 0.0019509482     1     2     2    13
 0.0163981931     1     2     3     1
 -0.0301588203     1     2     3     3
 0.0035790622     1     2     3     4
 -0.0037202127     1     2     3     6
 -0.0115211833     1     2     3     7
 0.0072031923     1     2     3     8
 -0.0037870469     1     2     3     9
 -0.0104679902     1     2     3    10
 0.0085325752     1     2     3    12
 0.0160458198     1     2     3    13
 -0.0757414310     1     2     4     1
 0.0031370264     1     2     4     3
 -0.0332938406     1     2     4     4
 -0.0105963576     1     2     4     6
 -0.0019486082     1     2     4     7
 0.0088118870     1     2     4     8
 -0.0020028707     1     2     4     9
 0.0171852208     1     2     4    10
 0.0074002840     1     2     4    12
 0.0023459999     1     2     4    13
 -0.0420885825     1     2     5     5
 -0.0221537255     1     2     5    11
 0.0119620264     1     2     5    14
 0.1296143286     1     2     6     1
 -0.0024313092     1     2     6     3
 -0.0093689170     1     2     6     4
 -0.0045773886     1     2     6     6
 -0.0024048653     1     2     6     7
 0.0043661602     1     2     6     8
 -0.0010298504     1     2     6     9
 0.0046715248     1     2     6    10
 0.0039448062     1     2     6    12
 0.0030601512     1     2     6    13
 -0.0442742456     1     2     7     1
 -0.0090944650     1     2     7     3
 -0.0013042336     1     2     7     4
 -0.0025063249     1     2     7     6
 -0.0044104969     1     2     7     7
 0.0035462126     1     2     7     8
 -0.0015199880     1     2     7     9
 -0.0022546023     1     2     7    10
 0.0038595806     1     2     7    12
 0.0063105403     1     2     7    13
 -0.0572082320     1     2     8     1
 0.0050021438     1     2     8     3
 0.0072154466     1     2     8     4
 0.0041646449     1     2     8     6
 0.0032792449     1     2     8     7
 -0.0044603337     1     2     8     8
 0.0014791728     1     2     8     9
 -0.0027541591     1     2     8    10
 -0.0041858680     1     2     8    12
 -0.0043893215     1     2     8    13
 -0.0702774352     1     2     9     1
 -0.0028215111     1     2     9     3
 -0.0011615437     1     2     9     4
 -0.0008078894     1     2     9     6
 -0.0013885712     1     2     9     7
 0.0013363340     1     2     9     8
 -0.0005996778     1     2     9     9
 0.0000615608     1     2     9    10
 0.0010924988     1     2     9    12
 0.0017537227     1     2     9    13
 -0.0279573494     1     2    10     1
 -0.0076422147     1     2    10     3
 0.0134006518     1     2    10     4
 0.0037283717     1     2    10     6
 -0.0019075749     1     2    10     7
 -0.0023160096     1     2    10     8
 0.0003563063     1     2    10     9
 -0.0108420645     1     2    10    10
 -0.0009295646     1     2    10    12
 0.0027072604     1     2    10    13
 -0.0166087089     1     2    11     5
 -0.0111265884     1     2    11    11
 0.0058365887     1     2    11    14
 -0.0414292258     1     2    12     1
 0.0058619376     1     2    12     3
 0.0053126755     1     2    12     4
 0.0034734760     1     2    12     6
 0.0034333847     1     2    12     7
 -0.0039046403     1     2    12     8
 0.0011337189     1     2    12     9
 -0.0008530393     1     2    12    10
 -0.0038410104     1     2    12    12
 -0.0047327619     1     2    12    13
 0.0753761596     1     2    13     1
 0.0115559497     1     2    13     3
 0.0013421741     1     2    13     4
 0.0029890059     1     2    13     6
 0.0057769510     1     2    13     7
 -0.0043863383     1     2    13     8
 0.0017377762     1     2    13     9
 0.0029187536     1     2    13    10
 -0.0048961818     1     2    13    12
 -0.0080180952     1     2    13    13
 0.0086956834     1     2    14     5
 0.0056422234     1     2    14    11
 -0.0028325862     1     2    14    14
 0.0163981931     1     3     2     1
 0.0038036798     1     3     2     2
 0.0004435291     1     3     2     4
 -0.0011135602     1     3     2     6
 -0.0017587087     1     3     2     7
 0.0018335265     1     3     2     8
 -0.0007699512     1     3     2     9
 -0.0022649788     1     3     2    10
 0.0022162244     1     3     2    12
 0.0036238401     1     3     2    13
 -0.8467848029     1     3     3     1
 0.0301588203     1     3     3     2
 0.0071616735     1     3     3     4
 -0.0036348611     1     3     3     6
 0.0023217701     1     3     3     7
 0.0005420993     1     3     3     8
 0.0005684924     1     3     3     9
 -0.0016847620     1     3     3    10
 0.0017585351     1     3     3    12
 -0.0046155309     1     3     3    13
 0.0567938938     1     3     4     1
 -0.0031370264     1     3     4     2
 0.0038674532     1     3     4     4
 0.0031386897     1     3     4     6
 0.0013145413     1     3     4     7
 -0.0044901300     1     3     4     8
 0.0011844840     1     3     4     9
 -0.0013440151     1     3     4    10
 -0.0002451209     1     3     4    12
 -0.0012572989     1     3     4    13
 0.0059615356     1     3     5     5
 0.0039652171     1     3     5    11
 0.0010243479     1     3     5    14
 -0.0642211696     1     3     6     1
 0.0024313092     1     3     6     2
 0.0020154502     1     3     6     4
 -0.0005647831     1     3     6     6
 -0.0011706895     1     3     6     7
 -0.0002691584     1     3     6     8
 0.0007429529     1     3     6     9
 -0.0011158411     1     3     6    10
 0.0010177209     1     3     6    12
 0.0006124785     1     3     6    13
 -0.1579086492     1     3     7     1
 0.0090944650     1     3     7     2
 0.0026662792     1     3     7     4
 -0.0032626181     1     3     7     6
 0.0022580728     1     3     7     7
 0.0008002247     1     3     7     8
 0.0015822177     1     3     7     9
 0.0007091302     1     3     7    10
 0.0001949053     1     3     7    12
 -0.0024838726     1     3     7    13
 0.0822267437     1     3     8     1
 -0.0050021438     1     3     8     2
 -0.0023632513     1     3     8     4
 0.0014155756     1     3     8     6
 -0.0000768228     1     3     8     7
 -0.0019910361     1     3     8     8
 -0.0003154312     1     3     8     9
 -0.0006822339     1     3     8    10
 -0.0017199930     1     3     8    12
 0.0004349985     1     3     8    13
 -0.0230998645     1     3     9     1
 0.0028215111     1     3     9     2
 0.0006741442     1     3     9     4
 -0.0002308333     1     3     9     6
 0.0016661813     1     3     9     7
 0.0001210169     1     3     9     8
 0.0008500556     1     3     9     9
 0.0030409668     1     3     9    10
 -0.0009289263     1     3     9    12
 -0.0040064806     1     3     9    13
 -0.1143706484     1     3    10     1
 0.0076422147     1     3    10     2
 0.0001628475     1     3    10     4
 -0.0032282293     1     3    10     6
 0.0013021620     1     3    10     7
 0.0012709902     1     3    10     8
 0.0025624176     1     3    10     9
 0.0024881727     1     3    10    10
 0.0017742062     1     3    10    12
 -0.0020221181     1     3    10    13
 0.0021470269     1     3    11     5
 -0.0000100415     1     3    11    11
 -0.0012911973     1     3    11    14
 0.1025096733     1     3    12     1
 -0.0058619376     1     3    12     2
 -0.0022396269     1     3    12     4
 0.0013889873     1     3    12     6
 -0.0015778068     1     3    12     7
 -0.0004414062     1     3    12     8
 -0.0016926211     1     3    12     9
 0.0015735252     1     3    12    10
 0.0004362661     1     3    12    12
 0.0022878626     1     3    12    13
 0.1745680825     1     3    13     1
 -0.0115559497     1     3    13     2
 -0.0034356472     1     3    13     4
 0.0036991931     1     3    13     6
 -0.0019599046     1     3    13     7
 -0.0011328846     1     3    13     8
 -0.0037391954     1     3    13     9
 -0.0006431606     1     3    13    10
 -0.0005555908     1     3    13    12
 0.0037636386     1     3    13    13
 -0.0016081365     1     3    14     5
 -0.0033227895     1     3    14    11
 0.0022161772     1     3    14    14
 -0.0757414310     1     4     2     1
 -0.0040252163     1     4     2     2
 -0.0004435291     1     4     2     3
 -0.0005246827     1     4     2     6
 -0.0005479886     1     4     2     7
 0.0010570556     1     4     2     8
 -0.0007434068     1     4     2     9
 0.0027807482     1     4     2    10
 0.0016859240     1     4     2    12
 0.0008890162     1     4     2    13
 0.0567938938     1     4     3     1
 -0.0035790622     1     4     3     2
 -0.0071616735     1     4     3     3
 0.0010075290     1     4     3     6
 -0.0014883650     1     4     3     7
 -0.0020130648     1     4     3     8
 0.0005441665     1     4     3     9
 -0.0014847377     1     4     3    10
 0.0021262638     1     4     3    12
 0.0024222255     1     4     3    13
 -0.8982129085     1     4     4     1
 0.0332938406     1     4     4     2
 -0.0038674532     1     4     4     3
 -0.0080151973     1     4     4     6
 0.0016520564     1     4     4     7
 0.0040601976     1     4     4     8
 0.0052563607     1     4     4     9
 0.0040909418     1     4     4    10
 0.0014022171     1     4     4    12
 -0.0016494215     1     4     4    13
 -0.0107388895     1     4     5     5
 -0.0047307456     1     4     5    11
 0.0034159543     1     4     5    14
 -0.1352682401     1     4     6     1
 0.0093689170     1     4     6     2
 -0.0020154502     1     4     6     3
 -0.0050195308     1     4     6     6
 -0.0003971342     1     4     6     7
 0.0028216669     1     4     6     8
 0.0012687987     1     4     6     9
 0.0028259722     1     4     6    10
 0.0022079934     1     4     6    12
 0.0003179670     1     4     6    13
 -0.0379845397     1     4     7     1
 0.0013042336     1     4     7     2
 -0.0026662792     1     4     7     3
 -0.0011616462     1     4     7     6
 -0.0018056828     1     4     7     7
 0.0011203029     1     4     7     8
 0.0001123596     1     4     7     9
 -0.0011726632     1     4     7    10
 0.0011586241     1     4     7    12
 0.0015388535     1     4     7    13
 0.0961212062     1     4     8     1
 -0.0072154466     1     4     8     2
 0.0023632513     1     4     8     3
 0.0038925415     1     4     8     6
 0.0013382075     1     4     8     7
 -0.0044949652     1     4     8     8
 -0.0017503495     1     4     8     9
 -0.0006869774     1     4     8    10
 -0.0030633706     1     4     8    12
 -0.0017913300     1     4     8    13
 -0.0447572195     1     4     9     1
 0.0011615437     1     4     9     2
 -0.0006741442     1     4     9     3
 -0.0010472749     1     4     9     6
 -0.0005590014     1     4     9     7
 -0.0000243407     1     4     9     8
 -0.0010200938     1     4     9     9
 -0.0004533809     1     4     9    10
 0.0022040990     1     4     9    12
 0.0010227077     1     4     9    13
 0.2142970760     1     4    10     1
 -0.0134006518     1     4    10     2
 -0.0001628475     1     4    10     3
 0.0058180985     1     4    10     6
 -0.0023626616     1     4    10     7
 -0.0022797119     1     4    10     8
 -0.0031794066     1     4    10     9
 -0.0017037557     1     4    10    10
 -0.0017567792     1     4    10    12
 0.0045226315     1     4    10    13
 -0.0047877191     1     4    11     5
 -0.0044186774     1     4    11    11
 0.0008320566     1     4    11    14
 0.0726588541     1     4    12     1
 -0.0053126755     1     4    12     2
 0.0022396269     1     4    12     3
 0.0031335215     1     4    12     6
 0.0000154849     1     4    12     7
 -0.0024525103     1     4    12     8
 0.0003860883     1     4    12     9
 -0.0025692024     1     4    12    10
 -0.0022585439     1     4    12    12
 0.0008002980     1     4    12    13
 0.0468869560     1     4    13     1
 -0.0013421741     1     4    13     2
 0.0034356472     1     4    13     3
 0.0009655125     1     4    13     6
 0.0012750156     1     4    13     7
 -0.0010955145     1     4    13     8
 0.0000220704     1     4    13     9
 0.0031140018     1     4    13    10
 -0.0004434408     1     4    13    12
 -0.0015991177     1     4    13    13
 0.0021954391     1     4    14     5
 0.0001215854     1     4    14    11
 -0.0022005766     1     4    14    14
 -0.0043059944     1     5     2    11
 0.0026215478     1     5     2    14
 0.0017105399     1     5     3    11
 0.0027736918     1     5     3    14
 0.0003600997     1     5     4    11
 0.0011076750     1     5     4    14
 -1.0045374865     1     5     5     1
 0.0420885825     1     5     5     2
 -0.0059615356     1     5     5     3
 0.0107388895     1     5     5     4
 -0.0086990533     1     5     5     6
 0.0019584854     1     5     5     7
 0.0057658760     1     5     5     8
 0.0077772540     1     5     5     9
 -0.0009176586     1     5     5    10
 0.0043578593     1     5     5    12
 -0.0060779179     1     5     5    13
 -0.0014141965     1     5     6    11
 0.0009089268     1     5     6    14
 0.0006751405     1     5     7    11
 -0.0006091620     1     5     7    14
 -0.0010994703     1     5     8    11
 0.0001092129     1     5     8    14
 -0.0009202839     1     5     9    11
 0.0007877515     1     5     9    14
 0.0000207320     1     5    10    11
 0.0001284445     1     5    10    14
 -0.2669379118     1     5    11     1
 0.0166087089     1     5    11     2
 -0.0021470269     1     5    11     3
 0.0047877191     1     5    11     4
 -0.0065899209     1     5    11     6
 0.0012959018     1     5    11     7
 0.0025612001     1     5    11     8
 0.0031112572     1     5    11     9
 -0.0001481255     1     5    11    10
 0.0024751324     1     5    11    12
 -0.0022225449     1     5    11    13
 -0.0003878456     1     5    12    11
 0.0001530328     1     5    12    14
 0.0004733271     1     5    13    11
 -0.0002547837     1     5    13    14
 0.1369498958     1     5    14     1
 -0.0086956834     1     5    14     2
 0.0016081365     1     5    14     3
 -0.0021954391     1     5    14     4
 0.0028469854     1     5    14     6
 -0.0023227358     1     5    14     7
 -0.0007097237     1     5    14     8
 -0.0018119256     1     5    14     9
 -0.0002502942     1     5    14    10
 -0.0001425670     1     5    14    12
 0.0030879162     1     5    14    13
 0.1296143286     1     6     2     1
 -0.0007154189     1     6     2     2
 0.0011135602     1     6     2     3
 0.0005246827     1     6     2     4
 0.0001012348     1     6     2     7
 0.0002023276     1     6     2     8
 -0.0002114890     1     6     2     9
 0.0009497074     1     6     2    10
 0.0004637724     1     6     2    12
 0.0000403451     1     6     2    13
 -0.0642211696     1     6     3     1
 0.0037202127     1     6     3     2
 0.0036348611     1     6     3     3
 -0.0010075290     1     6     3     4
 0.0020816966     1     6     3     7
 -0.0017003891     1     6     3     8
 0.0009783664     1     6     3     9
 0.0021231323     1     6     3    10
 -0.0003682512     1     6     3    12
 -0.0030933700     1     6     3    13
 -0.1352682401     1     6     4     1
 0.0105963576     1     6     4     2
 -0.0031386897     1     6     4     3
 0.0080151973     1     6     4     4
 0.0007622108     1     6     4     7
 -0.0011016113     1     6     4     8
 0.0023240837     1     6     4     9
 -0.0030427000     1     6     4    10
 -0.0009341401     1     6     4    12
 -0.0006456997     1     6     4    13
 0.0086990533     1     6     5     5
 0.0051460170     1     6     5    11
 -0.0019079475     1     6     5    14
 -0.3705217928     1     6     6     1
 0.0045773886     1     6     6     2
 0.0005647831     1     6     6     3
 0.0050195308     1     6     6     4
 0.0007728858     1     6     6     7
 -0.0008764609     1     6     6     8
 0.0011234335     1     6     6     9
 -0.0011704414     1     6     6    10
 -0.0007126440     1     6     6    12
 -0.0012606645     1     6     6    13
 -0.0224831281     1     6     7     1
 0.0025063249     1     6     7     2
 0.0032626181     1     6     7     3
 0.0011616462     1     6     7     4
 0.0016056086     1     6     7     7
 -0.0008822118     1     6     7     8
 0.0009445877     1     6     7     9
 0.0006575661     1     6     7    10
 -0.0011282351     1     6     7    12
 -0.0025021307     1     6     7    13
 0.1290936827     1     6     8     1
 -0.0041646449     1     6     8     2
 -0.0014155756     1     6     8     3
 -0.0038925415     1     6     8     4
 -0.0009125811     1     6     8     7
 -0.0001611314     1     6     8     8
 -0.0012937963     1     6     8     9
 0.0007664735     1     6     8    10
 0.0003255941     1     6     8    12
 0.0013246209     1     6     8    13
 0.0254093669     1     6     9     1
 0.0008078894     1     6     9     2
 0.0002308333     1     6     9     3
 0.0010472749     1     6     9     4
 0.0003605110     1     6     9     7
 -0.0004342405     1     6     9     8
 -0.0001099258     1     6     9     9
 -0.0000664486     1     6     9    10
 0.0002646617     1     6     9    12
 -0.0006565762     1     6     9    13
 0.0758394193     1     6    10     1
 -0.0037283717     1     6    10     2
 0.0032282293     1     6    10     3
 -0.0058180985     1     6    10     4
 0.0001267516     1     6    10     7
 0.0003328674     1     6    10     8
 -0.0007864349     1     6    10     9
 0.0039305859     1     6    10    10
 0.0000780741     1     6    10    12
 0.0001824488     1     6    10    13
 0.0065899209     1     6    11     5
 0.0030717525     1     6    11    11
 -0.0023620037     1     6    11    14
 0.0829652989     1     6    12     1
 -0.0034734760     1     6    12     2
 -0.0013889873     1     6    12     3
 -0.0031335215     1     6    12     4
 -0.0015158081     1     6    12     7
 0.0005678378     1     6    12     8
 -0.0006512624     1     6    12     9
 0.0000088036     1     6    12    10
 0.0006993395     1     6    12    12
 0.0024138239     1     6    12    13
 0.0144598981     1     6    13     1
 -0.0029890059     1     6    13     2
 -0.0036991931     1     6    13     3
 -0.0009655125     1     6    13     4
 -0.0020690693     1     6    13     7
 0.0009704343     1     6    13     8
 -0.0013088126     1     6    13     9
 -0.0003544254     1     6    13    10
 0.0015161607     1     6    13    12
 0.0031079066     1     6    13    13
 -0.0028469854     1     6    14     5
 -0.0024544830     1     6    14    11
 0.0005735311     1     6    14    14
 -0.0442742456     1     7     2     1
 0.0012576136     1     7     2     2
 0.0017587087     1     7     2     3
 0.0005479886     1     7     2     4
 -0.0001012348     1     7     2     6
 0.0002567515     1     7     2     8
 -0.0001319680     1     7     2     9
 -0.0003510223     1     7     2    10
 0.0004040327     1     7     2    12
 0.0005087174     1     7     2    13
 -0.1579086492     1     7     3     1
 0.0115211833     1     7     3     2
 -0.0023217701     1     7     3     3
 0.0014883650     1     7     3     4
 -0.0020816966     1     7     3     6
 0.0008611511     1     7     3     8
 -0.0000965624     1     7     3     9
 -0.0006340218     1     7     3    10
 0.0017799476     1     7     3    12
 -0.0005050809     1     7     3    13
 -0.0379845397     1     7     4     1
 0.0019486082     1     7     4     2
 -0.0013145413     1     7     4     3
 -0.0016520564     1     7     4     4
 -0.0007622108     1     7     4     6
 -0.0002287908     1     7     4     8
 0.0006752409     1     7     4     9
 0.0012014410     1     7     4    10
 0.0011456997     1     7     4    12
 0.0002613330     1     7     4    13
 -0.0019584854     1     7     5     5
 -0.0006085914     1     7     5    11
 0.0017313806     1     7     5    14
 -0.0224831281     1     7     6     1
 0.0024048653     1     7     6     2
 0.0011706895     1     7     6     3
 0.0003971342     1     7     6     4
 -0.0007728858     1     7     6     6
 0.0000318129     1     7     6     8
 0.0005833751     1     7     6     9
 0.0005300924     1     7     6    10
 0.0003895641     1     7     6    12
 -0.0004301808     1     7     6    13
 -0.3072623810     1     7     7     1
 0.0044104969     1     7     7     2
 -0.0022580728     1     7     7     3
 0.0018056828     1     7     7     4
 -0.0016056086     1     7     7     6
 0.0008363100     1     7     7     8
 0.0004842596     1     7     7     9
 -0.0006849196     1     7     7    10
 0.0007049102     1     7     7    12
 0.0001545056     1     7     7    13
 0.0751707932     1     7     8     1
 -0.0032792449     1     7     8     2
 0.0000768228     1     7     8     3
 -0.0013382075     1     7     8     4
 0.0009125811     1     7     8     6
 -0.0011629114     1     7     8     8
 -0.0003578921     1     7     8     9
 -0.0002927909     1     7     8    10
 -0.0009225690     1     7     8    12
 0.0001488780     1     7     8    13
 -0.0472189700     1     7     9     1
 0.0013885712     1     7     9     2
 -0.0016661813     1     7     9     3
 0.0005590014     1     7     9     4
 -0.0003605110     1     7     9     6
 0.0004027400     1     7     9     8
 0.0000723433     1     7     9     9
 0.0005935212     1     7     9    10
 0.0002727332     1     7     9    12
 -0.0006595849     1     7     9    13
 -0.0515704111     1     7    10     1
 0.0019075749     1     7    10     2
 -0.0013021620     1     7    10     3
 0.0023626616     1     7    10     4
 -0.0001267516     1     7    10     6
 -0.0000804814     1     7    10     8
 0.0007485663     1     7    10     9
 -0.0007730477     1     7    10    10
 0.0003766232     1     7    10    12
 0.0000487281     1     7    10    13
 -0.0012959018     1     7    11     5
 -0.0014555541     1     7    11    11
 0.0001077695     1     7    11    14
 0.0633007199     1     7    12     1
 -0.0034333847     1     7    12     2
 0.0015778068     1     7    12     3
 -0.0000154849     1     7    12     4
 0.0015158081     1     7    12     6
 -0.0011377342     1     7    12     8
 -0.0004482885     1     7    12     9
 0.0002503508     1     7    12    10
 -0.0007491366     1     7    12    12
 0.0001435477     1     7    12    13
 0.1343516290     1     7    13     1
 -0.0057769510     1     7    13     2
 0.0019599046     1     7    13     3
 -0.0012750156     1     7    13     4
 0.0020690693     1     7    13     6
 -0.0011657273     1     7    13     8
 -0.0013417079     1     7    13     9
 0.0003405375     1     7    13    10
 -0.0009125108     1     7    13    12
 0.0004565372     1     7    13    13
 0.0023227358     1     7    14     5
 0.0002351023     1     7    14    11
 -0.0001307299     1     7    14    14
 -0.0572082320     1     8     2     1
 0.0001373264     1     8     2     2
 -0.0018335265     1     8     2     3
 -0.0010570556     1     8     2     4
 -0.0002023276     1     8     2     6
 -0.0002567515     1     8     2     7
 0.0001445636     1     8     2     9
 -0.0004425970     1     8     2    10
 -0.0002706345     1     8     2    12
 0.0000113487     1     8     2    13
 0.0822267437     1     8     3     1
 -0.0072031923     1     8     3     2
 -0.0005420993     1     8     3     3
 0.0020130648     1     8     3     4
 0.0017003891     1     8     3     6
 -0.0008611511     1     8     3     7
 -0.0004479757     1     8     3     9
 -0.0019418062     1     8     3    10
 -0.0012942923     1     8     3    12
 0.0015579555     1     8     3    13
 0.0961212062     1     8     4     1
 -0.0088118870     1     8     4     2
 0.0044901300     1     8     4     3
 -0.0040601976     1     8     4     4
 0.0011016113     1     8     4     6
 0.0002287908     1     8     4     7
 -0.0017408740     1     8     4     9
 0.0016121303     1     8     4    10
 -0.0006280260     1     8     4    12
 -0.0006960804     1     8     4    13
 -0.0057658760     1     8     5     5
 -0.0036348737     1     8     5    11
 0.0008011825     1     8     5    14
 0.1290936827     1     8     6     1
 -0.0043661602     1     8     6     2
 0.0002691584     1     8     6     3
 -0.0028216669     1     8     6     4
 0.0008764609     1     8     6     6
 -0.0000318129     1     8     6     7
 -0.0008607118     1     8     6     9
 0.0004337460     1     8     6    10
 -0.0002446593     1     8     6    12
 0.0003527552     1     8     6    13
 0.0751707932     1     8     7     1
 -0.0035462126     1     8     7     2
 -0.0008002247     1     8     7     3
 -0.0011203029     1     8     7     4
 0.0008822118     1     8     7     6
 -0.0008363100     1     8     7     7
 -0.0007611077     1     8     7     9
 -0.0002149650     1     8     7    10
 0.0002129682     1     8     7    12
 0.0013143950     1     8     7    13
 -0.3903307572     1     8     8     1
 0.0044603337     1     8     8     2
 0.0019910361     1     8     8     3
 0.0044949652     1     8     8     4
 0.0001611314     1     8     8     6
 0.0011629114     1     8     8     7
 0.0012999120     1     8     8     9
 -0.0007048920     1     8     8    10
 -0.0004357917     1     8     8    12
 -0.0016937468     1     8     8    13
 0.0113576728     1     8     9     1
 -0.0013363340     1     8     9     2
 -0.0001210169     1     8     9     3
 0.0000243407     1     8     9     4
 0.0004342405     1     8     9     6
 -0.0004027400     1     8     9     7
 0.0000362357     1     8     9     9