&FCI NORB=  8,NELEC=  6,MS2=0,
 ORBSYM=1,1,1,1,1,1,1,1
 ISYM=1,
&END
 0.1367514870     1     1     2     2
 0.0163225882     1     1     2     4
 0.0087631387     1     1     2     6
 -0.0012644000     1     1     2     8
 0.1745895748     1     1     3     3
 -0.0324541107     1     1     3     5
 0.0004291371     1     1     3     7
 0.0163225882     1     1     4     2
 0.1911999243     1     1     4     4
 -0.0386550106     1     1     4     6
 -0.0026254109     1     1     4     8
 -0.0324541107     1     1     5     3
 0.1872689547     1     1     5     5
 -0.0107870620     1     1     5     7
 0.0087631387     1     1     6     2
 -0.0386550106     1     1     6     4
 0.2148117473     1     1     6     6
 0.0314177942     1     1     6     8
 0.0004291371     1     1     7     3
 -0.0107870620     1     1     7     5
 0.1877295019     1     1     7     7
 -0.0012644000     1     1     8     2
 -0.0026254109     1     1     8     4
 0.0314177942     1     1     8     6
 0.1652222842     1     1     8     8
 -0.1367514870     1     2     2     1
 -0.0492171717     1     2     2     3
 0.0010842285     1     2     2     5
 -0.0039825507     1     2     2     7
 0.0444419894     1     2     3     4
 -0.0214268356     1     2     3     6
 -0.0030151242     1     2     3     8
 -0.0163225882     1     2     4     1
 0.0122082576     1     2     4     3
 0.0507352060     1     2     4     5
 -0.0071020847     1     2     4     7
 0.0359908382     1     2     5     4
 0.0559885984     1     2     5     6
 0.0170396107     1     2     5     8
 -0.0087631387     1     2     6     1
 -0.0156152624     1     2     6     3
 0.0448999112     1     2     6     5
 0.0063850394     1     2     6     7
 -0.0050325450     1     2     7     4
 0.0057097185     1     2     7     6
 -0.0508791100     1     2     7     8
 0.0012644000     1     2     8     1
 0.0002994381     1     2     8     3
 0.0145769532     1     2     8     5
 -0.0500920537     1     2     8     7
 0.0492171717     1     3     2     2
 0.0322337318     1     3     2     4
 -0.0058115732     1     3     2     6
 -0.0033145623     1     3     2     8
 -0.1745895748     1     3     3     1
 -0.0320712505     1     3     3     5
 -0.0047181145     1     3     3     7
 -0.0122082576     1     3     4     2
 0.0104213535     1     3     4     4
 -0.0365250981     1     3     4     6
 -0.0100468457     1     3     4     8
 0.0324541107     1     3     5     1
 0.0010230669     1     3     5     5
 0.0000725383     1     3     5     7
 0.0156152624     1     3     6     2
 -0.0153853256     1     3     6     4
 0.0218326417     1     3     6     6
 0.0124050053     1     3     6     8
 -0.0004291371     1     3     7     1
 -0.0014602828     1     3     7     5
 0.0162403796     1     3     7     7
 -0.0002994381     1     3     8     2
 -0.0080294711     1     3     8     4
 0.0119941071     1     3     8     6
 -0.0071247254     1     3     8     8
 -0.0163225882     1     4     2     1
 -0.0322337318     1     4     2     3
 0.0147443678     1     4     2     5
 -0.0020695397     1     4     2     7
 -0.0444419894     1     4     3     2
 -0.0211397725     1     4     3     6
 -0.0020173746     1     4     3     8
 -0.1911999243     1     4     4     1
 -0.0104213535     1     4     4     3
 0.0014006221     1     4     4     5
 -0.0133850556     1     4     4     7
 -0.0359908382     1     4     5     2
 0.0103672043     1     4     5     6
 0.0118769007     1     4     5     8
 0.0386550106     1     4     6     1
 0.0153853256     1     4     6     3
 0.0093275696     1     4     6     5
 0.0018399935     1     4     6     7
 0.0050325450     1     4     7     2
 -0.0010341178     1     4     7     6
 -0.0093912744     1     4     7     8
 0.0026254109     1     4     8     1
 0.0080294711     1     4     8     3
 0.0023222068     1     4     8     5
 -0.0084153633     1     4     8     7
 -0.0010842285     1     5     2     2
 -0.0147443678     1     5     2     4
 0.0110886872     1     5     2     6
 0.0024626575     1     5     2     8
 0.0324541107     1     5     3     1
 0.0320712505     1     5     3     3
 0.0015328211     1     5     3     7
 -0.0507352060     1     5     4     2
 -0.0014006221     1     5     4     4
 0.0010396347     1     5     4     6
 0.0095546939     1     5     4     8
 -0.1872689547     1     5     5     1
 -0.0010230669     1     5     5     3
 -0.0133813501     1     5     5     7
 -0.0448999112     1     5     6     2
 -0.0093275696     1     5     6     4
 0.0052480590     1     5     6     6
 0.0081545566     1     5     6     8
 0.0107870620     1     5     7     1
 0.0014602828     1     5     7     3
 0.0052763340     1     5     7     7
 -0.0145769532     1     5     8     2
 -0.0023222068     1     5     8     4
 0.0006745463     1     5     8     6
 0.0051524269     1     5     8     8
 -0.0087631387     1     6     2     1
 0.0058115732     1     6     2     3
 -0.0110886872     1     6     2     5
 0.0006753209     1     6     2     7
 0.0214268356     1     6     3     2
 0.0211397725     1     6     3     4
 0.0004108982     1     6     3     8
 0.0386550106     1     6     4     1
 0.0365250981     1     6     4     3
 -0.0010396347     1     6     4     5
 0.0028741113     1     6     4     7
 -0.0559885984     1     6     5     2
 -0.0103672043     1     6     5     4
 0.0074800103     1     6     5     8
 -0.2148117473     1     6     6     1
 -0.0218326417     1     6     6     3
 -0.0052480590     1     6     6     5
 -0.0147596049     1     6     6     7
 -0.0057097185     1     6     7     2
 0.0010341178     1     6     7     4
 0.0018521909     1     6     7     8
 -0.0314177942     1     6     8     1
 -0.0119941071     1     6     8     3
 -0.0006745463     1     6     8     5
 -0.0025563734     1     6     8     7
 0.0039825507     1     7     2     2
 0.0020695397     1     7     2     4
 -0.0006753209     1     7     2     6
 -0.0007870563     1     7     2     8
 -0.0004291371     1     7     3     1
 0.0047181145     1     7     3     3
 -0.0015328211     1     7     3     5
 0.0071020847     1     7     4     2
 0.0133850556     1     7     4     4
 -0.0028741113     1     7     4     6
 -0.0009759111     1     7     4     8
 0.0107870620     1     7     5     1
 -0.0000725383     1     7     5     3
 0.0133813501     1     7     5     5
 -0.0063850394     1     7     6     2
 -0.0018399935     1     7     6     4
 0.0147596049     1     7     6     6
 0.0044085643     1     7     6     8
 -0.1877295019     1     7     7     1
 -0.0162403796     1     7     7     3
 -0.0052763340     1     7     7     5
 0.0500920537     1     7     8     2
 0.0084153633     1     7     8     4
 0.0025563734     1     7     8     6
 0.0029681412     1     7     8     8
 0.0012644000     1     8     2     1
 0.0033145623     1     8     2     3
 -0.0024626575     1     8     2     5
 0.0007870563     1     8     2     7
 0.0030151242     1     8     3     2
 0.0020173746     1     8     3     4
 -0.0004108982     1     8     3     6
 0.0026254109     1     8     4     1
 0.0100468457     1     8     4     3
 -0.0095546939     1     8     4     5
 0.0009759111     1     8     4     7
 -0.0170396107     1     8     5     2
 -0.0118769007     1     8     5     4
 -0.0074800103     1     8     5     6
 -0.0314177942     1     8     6     1
 -0.0124050053     1     8     6     3
 -0.0081545566     1     8     6     5
 -0.0044085643     1     8     6     7
 0.0508791100     1     8     7     2
 0.0093912744     1     8     7     4
 -0.0018521909     1     8     7     6
 -0.1652222842     1     8     8     1
 0.0071247254     1     8     8     3
 -0.0051524269     1     8     8     5
 -0.0029681412     1     8     8     7
 -0.1367514870     2     1     1     2
 -0.0163225882     2     1     1     4
 -0.0087631387     2     1     1     6
 0.0012644000     2     1     1     8
 -0.0492171717     2     1     3     2
 0.0122082576     2     1     3     4
 -0.0156152624     2     1     3     6
 0.0002994381     2     1     3     8
 0.0444419894     2     1     4     3
 0.0359908382     2     1     4     5
 -0.0050325450     2     1     4     7
 0.0010842285     2     1     5     2
 0.0507352060     2     1     5     4
 0.0448999112     2     1     5     6
 0.0145769532     2     1     5     8
 -0.0214268356     2     1     6     3
 0.0559885984     2     1     6     5
 0.0057097185     2     1     6     7
 -0.0039825507     2     1     7     2
 -0.0071020847     2     1     7     4
 0.0063850394     2     1     7     6
 -0.0500920537     2     1     7     8
 -0.0030151242     2     1     8     3
 0.0170396107     2     1     8     5
 -0.0508791100     2     1     8     7
 0.1367514870     2     2     1     1
 0.0492171717     2     2     1     3
 -0.0010842285     2     2     1     5
 0.0039825507     2     2     1     7
 0.0492171717     2     2     3     1
 0.1421728418     2     2     3     3
 -0.0077982556     2     2     3     5
 0.0025976594     2     2     3     7
 0.1731431472     2     2     4     4
 -0.0075050357     2     2     4     6
 0.0068107805     2     2     4     8
 -0.0010842285     2     2     5     1
 -0.0077982556     2     2     5     3
 0.1822915648     2     2     5     5
 -0.0082123854     2     2     5     7
 -0.0075050357     2     2     6     4
 0.1858406197     2     2     6     6
 0.0167658696     2     2     6     8
 0.0039825507     2     2     7     1
 0.0025976594     2     2     7     3
 -0.0082123854     2     2     7     5
 0.1703794030     2     2     7     7
 0.0068107805     2     2     8     4
 0.0167658696     2     2     8     6
 0.1722246366     2     2     8     8
 -0.0492171717     2     3     1     2
 -0.0322337318     2     3     1     4
 0.0058115732     2     3     1     6
 0.0033145623     2     3     1     8
 -0.1421728418     2     3     3     2
 -0.0570910785     2     3     3     4
 0.0043052261     2     3     3     6
 0.0032057957     2     3     3     8
 -0.0444419894     2     3     4     1
 -0.0565108485     2     3     4     5
 -0.0001669390     2     3     4     7
 0.0077982556     2     3     5     2
 -0.0299766005     2     3     5     4
 -0.0503902933     2     3     5     6
 -0.0112542057     2     3     5     8
 0.0214268356     2     3     6     1
 -0.0327065234     2     3     6     5
 -0.0068987232     2     3     6     7
 -0.0025976594     2     3     7     2
 -0.0006652414     2     3     7     4
 -0.0061288755     2     3     7     6
 0.0484972009     2     3     7     8
 0.0030151242     2     3     8     1
 -0.0085555211     2     3     8     5
 0.0476197768     2     3     8     7
 0.0163225882     2     4     1     1
 0.0322337318     2     4     1     3
 -0.0147443678     2     4     1     5
 0.0020695397     2     4     1     7
 -0.0122082576     2     4     3     1
 0.0570910785     2     4     3     3
 -0.0265342480     2     4     3     5
 0.0004983024     2     4     3     7
 -0.1731431472     2     4     4     2
 -0.0367155440     2     4     4     6
 0.0018656910     2     4     4     8
 -0.0507352060     2     4     5     1
 0.0299766005     2     4     5     3
 0.0042118747     2     4     5     5
 -0.0116502352     2     4     5     7
 0.0075050357     2     4     6     2
 0.0204783365     2     4     6     6
 0.0160748526     2     4     6     8
 0.0071020847     2     4     7     1
 0.0006652414     2     4     7     3
 -0.0036649769     2     4     7     5
 0.0179899588     2     4     7     7
 -0.0068107805     2     4     8     2
 0.0092877582     2     4     8     6
 -0.0006308241     2     4     8     8
 0.0010842285     2     5     1     2
 0.0147443678     2     5     1     4
 -0.0110886872     2     5     1     6
 -0.0024626575     2     5     1     8
 0.0077982556     2     5     3     2
 0.0265342480     2     5     3     4
 -0.0176837699     2     5     3     6
 -0.0026986846     2     5     3     8
 -0.0359908382     2     5     4     1
 0.0565108485     2     5     4     3
 -0.0079852583     2     5     4     7
 -0.1822915648     2     5     5     2
 -0.0042118747     2     5     5     4
 -0.0069915844     2     5     5     6
 0.0172561157     2     5     5     8
 -0.0559885984     2     5     6     1
 0.0327065234     2     5     6     3
 -0.0110038586     2     5     6     7
 0.0082123854     2     5     7     2
 0.0036649769     2     5     7     4
 -0.0026049192     2     5     7     6
 -0.0032335103     2     5     7     8
 -0.0170396107     2     5     8     1
 0.0085555211     2     5     8     3
 -0.0054496856     2     5     8     7
 0.0087631387     2     6     1     1
 -0.0058115732     2     6     1     3
 0.0110886872     2     6     1     5
 -0.0006753209     2     6     1     7
 0.0156152624     2     6     3     1
 -0.0043052261     2     6     3     3
 0.0176837699     2     6     3     5
 -0.0007698477     2     6     3     7
 0.0075050357     2     6     4     2
 0.0367155440     2     6     4     4
 0.0067870944     2     6     4     8
 -0.0448999112     2     6     5     1
 0.0503902933     2     6     5     3
 0.0069915844     2     6     5     5
 -0.0083989394     2     6     5     7
 -0.1858406197     2     6     6     2
 -0.0204783365     2     6     6     4
 0.0119645163     2     6     6     8
 -0.0063850394     2     6     7     1
 0.0061288755     2     6     7     3
 0.0026049192     2     6     7     5
 0.0042625335     2     6     7     7
 -0.0167658696     2     6     8     2
 -0.0092877582     2     6     8     4
 0.0072206345     2     6     8     8
 -0.0039825507     2     7     1     2
 -0.0020695397     2     7     1     4
 0.0006753209     2     7     1     6
 0.0007870563     2     7     1     8
 -0.0025976594     2     7     3     2
 -0.0004983024     2     7     3     4
 0.0007698477     2     7     3     6
 0.0008774241     2     7     3     8
 0.0050325450     2     7     4     1
 0.0001669390     2     7     4     3
 0.0079852583     2     7     4     5
 0.0082123854     2     7     5     2
 0.0116502352     2     7     5     4
 0.0083989394     2     7     5     6
 0.0022161753     2     7     5     8
 -0.0057097185     2     7     6     1
 0.0068987232     2     7     6     3
 0.0110038586     2     7     6     5
 -0.1703794030     2     7     7     2
 -0.0179899588     2     7     7     4
 -0.0042625335     2     7     7     6
 0.0001472931     2     7     7     8
 0.0508791100     2     7     8     1
 -0.0476197768     2     7     8     3
 0.0054496856     2     7     8     5
 -0.0012644000     2     8     1     1
 -0.0033145623     2     8     1     3
 0.0024626575     2     8     1     5
 -0.0007870563     2     8     1     7
 -0.0002994381     2     8     3     1
 -0.0032057957     2     8     3     3
 0.0026986846     2     8     3     5
 -0.0008774241     2     8     3     7
 -0.0068107805     2     8     4     2
 -0.0018656910     2     8     4     4
 -0.0067870944     2     8     4     6
 -0.0145769532     2     8     5     1
 0.0112542057     2     8     5     3
 -0.0172561157     2     8     5     5
 -0.0022161753     2     8     5     7
 -0.0167658696     2     8     6     2
 -0.0160748526     2     8     6     4
 -0.0119645163     2     8     6     6
 0.0500920537     2     8     7     1
 -0.0484972009     2     8     7     3
 0.0032335103     2     8     7     5
 -0.0001472931     2     8     7     7
 -0.1722246366     2     8     8     2
 0.0006308241     2     8     8     4
 -0.0072206345     2     8     8     6
 -0.1745895748     3     1     1     3
 0.0324541107     3     1     1     5
 -0.0004291371     3     1     1     7
 0.0492171717     3     1     2     2
 -0.0122082576     3     1     2     4
 0.0156152624     3     1     2     6
 -0.0002994381     3     1     2     8
 0.0322337318     3     1     4     2
 0.0104213535     3     1     4     4
 -0.0153853256     3     1     4     6
 -0.0080294711     3     1     4     8
 -0.0320712505     3     1     5     3
 0.0010230669     3     1     5     5
 -0.0014602828     3     1     5     7
 -0.0058115732     3     1     6     2
 -0.0365250981     3     1     6     4
 0.0218326417     3     1     6     6
 0.0119941071     3     1     6     8
 -0.0047181145     3     1     7     3
 0.0000725383     3     1     7     5
 0.0162403796     3     1     7     7
 -0.0033145623     3     1     8     2
 -0.0100468457     3     1     8     4
 0.0124050053     3     1     8     6
 -0.0071247254     3     1     8     8
 -0.0444419894     3     2     1     4
 0.0214268356     3     2     1     6
 0.0030151242     3     2     1     8
 -0.0492171717     3     2     2     1
 -0.1421728418     3     2     2     3
 0.0077982556     3     2     2     5
 -0.0025976594     3     2     2     7
 -0.0322337318     3     2     4     1
 -0.0570910785     3     2     4     3
 -0.0299766005     3     2     4     5
 -0.0006652414     3     2     4     7
 -0.0565108485     3     2     5     4
 -0.0327065234     3     2     5     6
 -0.0085555211     3     2     5     8
 0.0058115732     3     2     6     1
 0.0043052261     3     2     6     3
 -0.0503902933     3     2     6     5
 -0.0061288755     3     2     6     7
 -0.0001669390     3     2     7     4
 -0.0068987232     3     2     7     6
 0.0476197768     3     2     7     8
 0.0033145623     3     2     8     1
 0.0032057957     3     2     8     3
 -0.0112542057     3     2     8     5
 0.0484972009     3     2     8     7
 0.1745895748     3     3     1     1
 0.0320712505     3     3     1     5
 0.0047181145     3     3     1     7
 0.1421728418     3     3     2     2
 0.0570910785     3     3     2     4
 -0.0043052261     3     3     2     6
 -0.0032057957     3     3     2     8
 0.0570910785     3     3     4     2
 0.1777599785     3     3     4     4
 -0.0160859797     3     3     4     6
 -0.0027625951     3     3     4     8
 0.0320712505     3     3     5     1
 0.1717891258     3     3     5     5
 -0.0029156448     3     3     5     7
 -0.0043052261     3     3     6     2
 -0.0160859797     3     3     6     4
 0.1856815383     3     3     6     6
 0.0191260018     3     3     6     8
 0.0047181145     3     3     7     1
 -0.0029156448     3     3     7     5
 0.1755329889     3     3     7     7
 -0.0032057957     3     3     8     2
 -0.0027625951     3     3     8     4
 0.0191260018     3     3     8     6
 0.1661285557     3     3     8     8
 0.0444419894     3     4     1     2
 0.0211397725     3     4     1     6
 0.0020173746     3     4     1     8
 0.0122082576     3     4     2     1
 -0.0570910785     3     4     2     3
 0.0265342480     3     4     2     5
 -0.0004983024     3     4     2     7
 -0.0104213535     3     4     4     1
 -0.1777599785     3     4     4     3
 0.0608318588     3     4     4     5
 -0.0024937791     3     4     4     7
 0.0565108485     3     4     5     2
 0.0501936153     3     4     5     6
 0.0018332719     3     4     5     8
 0.0365250981     3     4     6     1
 0.0160859797     3     4     6     3
 0.0085307188     3     4     6     5
 0.0150098908     3     4     6     7
 0.0001669390     3     4     7     2
 0.0065275486     3     4     7     6
 -0.0342672117     3     4     7     8
 0.0100468457     3     4     8     1
 0.0027625951     3     4     8     3
 -0.0000873776     3     4     8     5
 -0.0311971757     3     4     8     7
 -0.0324541107     3     5     1     1
 -0.0320712505     3     5     1     3
 -0.0015328211     3     5     1     7
 -0.0077982556     3     5     2     2
 -0.0265342480     3     5     2     4
 0.0176837699     3     5     2     6
 0.0026986846     3     5     2     8
 0.0299766005     3     5     4     2
 -0.0608318588     3     5     4     4
 0.0416628965     3     5     4     6
 0.0019206495     3     5     4     8
 -0.0010230669     3     5     5     1
 -0.1717891258     3     5     5     3
 0.0084672219     3     5     5     7
 0.0503902933     3     5     6     2
 -0.0085307188     3     5     6     4
 -0.0114818167     3     5     6     6
 -0.0196521293     3     5     6     8
 -0.0000725383     3     5     7     1
 0.0029156448     3     5     7     3
 -0.0179121221     3     5     7     7
 0.0112542057     3     5     8     2
 0.0000873776     3     5     8     4
 -0.0075139170     3     5     8     6
 -0.0012316634     3     5     8     8
 -0.0214268356     3     6     1     2
 -0.0211397725     3     6     1     4
 -0.0004108982     3     6     1     8
 -0.0156152624     3     6     2     1
 0.0043052261     3     6     2     3
 -0.0176837699     3     6     2     5
 0.0007698477     3     6     2     7
 0.0153853256     3     6     4     1
 0.0160859797     3     6     4     3
 -0.0416628965     3     6     4     5
 0.0084823422     3     6     4     7
 0.0327065234     3     6     5     2
 -0.0501936153     3     6     5     4
 -0.0121382123     3     6     5     8
 -0.0218326417     3     6     6     1
 -0.1856815383     3     6     6     3
 0.0114818167     3     6     6     5
 -0.0002838467     3     6     6     7
 0.0068987232     3     6     7     2
 -0.0065275486     3     6     7     4
 0.0103971379     3     6     7     8
 -0.0124050053     3     6     8     1
 -0.0191260018     3     6     8     3
 0.0075139170     3     6     8     5
 0.0094905940     3     6     8     7
 0.0004291371     3     7     1     1
 -0.0047181145     3     7     1     3
 0.0015328211     3     7     1     5
 0.0025976594     3     7     2     2
 0.0004983024     3     7     2     4
 -0.0007698477     3     7     2     6
 -0.0008774241     3     7     2     8
 0.0006652414     3     7     4     2
 0.0024937791     3     7     4     4
 -0.0084823422     3     7     4     6
 -0.0030700360     3     7     4     8
 0.0014602828     3     7     5     1
 0.0029156448     3     7     5     3
 -0.0084672219     3     7     5     5
 0.0061288755     3     7     6     2
 -0.0150098908     3     7     6     4
 0.0002838467     3     7     6     6
 0.0009065439     3     7     6     8
 -0.0162403796     3     7     7     1
 -0.1755329889     3     7     7     3
 0.0179121221     3     7     7     5
 -0.0484972009     3     7     8     2
 0.0311971757     3     7     8     4
 -0.0094905940     3     7     8     6
 -0.0007205182     3     7     8     8
 -0.0030151242     3     8     1     2
 -0.0020173746     3     8     1     4
 0.0004108982     3     8     1     6
 0.0002994381     3     8     2     1
 0.0032057957     3     8     2     3
 -0.0026986846     3     8     2     5
 0.0008774241     3     8     2     7
 0.0080294711     3     8     4     1
 0.0027625951     3     8     4     3
 -0.0019206495     3     8     4     5
 0.0030700360     3     8     4     7
 0.0085555211     3     8     5     2
 -0.0018332719     3     8     5     4
 0.0121382123     3     8     5     6
 -0.0119941071     3     8     6     1
 -0.0191260018     3     8     6     3
 0.0196521293     3     8     6     5
 -0.0009065439     3     8     6     7
 -0.0476197768     3     8     7     2
 0.0342672117     3     8     7     4
 -0.0103971379     3     8     7     6
 0.0071247254     3     8     8     1
 -0.1661285557     3     8     8     3
 0.0012316634     3     8     8     5
 0.0007205182     3     8     8     7
 -0.0163225882     4     1     1     2
 -0.1911999243     4     1     1     4
 0.0386550106     4     1     1     6
 0.0026254109     4     1     1     8
 -0.0444419894     4     1     2     3
 -0.0359908382     4     1     2     5
 0.0050325450     4     1     2     7
 -0.0322337318     4     1     3     2
 -0.0104213535     4     1     3     4
 0.0153853256     4     1     3     6
 0.0080294711     4     1     3     8
 0.0147443678     4     1     5     2
 0.0014006221     4     1     5     4
 0.0093275696     4     1     5     6
 0.0023222068     4     1     5     8
 -0.0211397725     4     1     6     3
 0.0103672043     4     1     6     5
 -0.0010341178     4     1     6     7
 -0.0020695397     4     1     7     2
 -0.0133850556     4     1     7     4
 0.0018399935     4     1     7     6
 -0.0084153633     4     1     7     8
 -0.0020173746     4     1     8     3
 0.0118769007     4     1     8     5
 -0.0093912744     4     1     8     7
 0.0163225882     4     2     1     1
 -0.0122082576     4     2     1     3
 -0.0507352060     4     2     1     5
 0.0071020847     4     2     1     7
 -0.1731431472     4     2     2     4
 0.0075050357     4     2     2     6
 -0.0068107805     4     2     2     8
 0.0322337318     4     2     3     1
 0.0570910785     4     2     3     3
 0.0299766005     4     2     3     5
 0.0006652414     4     2     3     7
 -0.0147443678     4     2     5     1
 -0.0265342480     4     2     5     3
 0.0042118747     4     2     5     5
 -0.0036649769     4     2     5     7
 -0.0367155440     4     2     6     4
 0.0204783365     4     2     6     6
 0.0092877582     4     2     6     8
 0.0020695397     4     2     7     1
 0.0004983024     4     2     7     3
 -0.0116502352     4     2     7     5
 0.0179899588     4     2     7     7
 0.0018656910     4     2     8     4
 0.0160748526     4     2     8     6
 -0.0006308241     4     2     8     8
 0.0122082576     4     3     1     2
 -0.0104213535     4     3     1     4
 0.0365250981     4     3     1     6
 0.0100468457     4     3     1     8
 0.0444419894     4     3     2     1
 0.0565108485     4     3     2     5
 0.0001669390     4     3     2     7
 -0.0570910785     4     3     3     2
 -0.1777599785     4     3     3     4
 0.0160859797     4     3     3     6
 0.0027625951     4     3     3     8
 0.0265342480     4     3     5     2
 0.0608318588     4     3     5     4
 0.0085307188     4     3     5     6
 -0.0000873776     4     3     5     8
 0.0211397725     4     3     6     1
 0.0501936153     4     3     6     5
 0.0065275486     4     3     6     7
 -0.0004983024     4     3     7     2
 -0.0024937791     4     3     7     4
 0.0150098908     4     3     7     6
 -0.0311971757     4     3     7     8
 0.0020173746     4     3     8     1
 0.0018332719     4     3     8     5
 -0.0342672117     4     3     8     7
 0.1911999243     4     4     1     1
 0.0104213535     4     4     1     3
 -0.0014006221     4     4     1     5
 0.0133850556     4     4     1     7
 0.1731431472     4     4     2     2
 0.0367155440     4     4     2     6
 -0.0018656910     4     4     2     8
 0.0104213535     4     4     3     1
 0.1777599785     4     4     3     3
 -0.0608318588     4     4     3     5
 0.0024937791     4     4     3     7
 -0.0014006221     4     4     5     1
 -0.0608318588     4     4     5     3
 0.1419903109     4     4     5     5
 -0.0039131689     4     4     5     7
 0.0367155440     4     4     6     2
 0.1704737911     4     4     6     6
 0.0101709312     4     4     6     8
 0.0133850556     4     4     7     1
 0.0024937791     4     4     7     3
 -0.0039131689     4     4     7     5
 0.1747378961     4     4     7     7
 -0.0018656910     4     4     8     2
 0.0101709312     4     4     8     6
 0.1615445702     4     4     8     8
 0.0507352060     4     5     1     2
 0.0014006221     4     5     1     4
 -0.0010396347     4     5     1     6
 -0.0095546939     4     5     1     8
 0.0359908382     4     5     2     1
 -0.0565108485     4     5     2     3
 0.0079852583     4     5     2     7
 -0.0299766005     4     5     3     2
 0.0608318588     4     5     3     4
 -0.0416628965     4     5     3     6
 -0.0019206495     4     5     3     8
 -0.0042118747     4     5     5     2
 -0.1419903109     4     5     5     4
 0.0586984713     4     5     5     6
 0.0047262574     4     5     5     8
 -0.0103672043     4     5     6     1
 -0.0501936153     4     5     6     3
 0.0126420566     4     5     6     7
 0.0116502352     4     5     7     2
 0.0039131689     4     5     7     4
 0.0048292105     4     5     7     6
 -0.0487500263     4     5     7     8
 -0.0118769007     4     5     8     1
 -0.0018332719     4     5     8     3
 -0.0465004578     4     5     8     7
 -0.0386550106     4     6     1     1
 -0.0365250981     4     6     1     3
 0.0010396347     4     6     1     5
 -0.0028741113     4     6     1     7
 -0.0075050357     4     6     2     2
 -0.0367155440     4     6     2     4
 -0.0067870944     4     6     2     8
 -0.0153853256     4     6     3     1
 -0.0160859797     4     6     3     3
 0.0416628965     4     6     3     5
 -0.0084823422     4     6     3     7
 -0.0093275696     4     6     5     1
 -0.0085307188     4     6     5     3
 -0.0586984713     4     6     5     5
 0.0078128461     4     6     5     7
 -0.0204783365     4     6     6     2
 -0.1704737911     4     6     6     4
 -0.0142873746     4     6     6     8
 -0.0018399935     4     6     7     1
 -0.0150098908     4     6     7     3
 -0.0048292105     4     6     7     5
 -0.0203742851     4     6     7     7
 -0.0160748526     4     6     8     2
 -0.0101709312     4     6     8     4
 0.0042914463     4     6     8     8
 -0.0071020847     4     7     1     2
 -0.0133850556     4     7     1     4
 0.0028741113     4     7     1     6
 0.0009759111     4     7     1     8
 -0.0050325450     4     7     2     1
 -0.0001669390     4     7     2     3
 -0.0079852583     4     7     2     5
 -0.0006652414     4     7     3     2
 -0.0024937791     4     7     3     4
 0.0084823422     4     7     3     6
 0.0030700360     4     7     3     8
 0.0036649769     4     7     5     2
 0.0039131689     4     7     5     4
 -0.0078128461     4     7     5     6
 -0.0022495685     4     7     5     8
 0.0010341178     4     7     6     1
 -0.0065275486     4     7     6     3
 -0.0126420566     4     7     6     5
 -0.0179899588     4     7     7     2
 -0.1747378961     4     7     7     4
 0.0203742851     4     7     7     6
 0.0031873689     4     7     7     8
 0.0093912744     4     7     8     1
 0.0342672117     4     7     8     3
 0.0465004578     4     7     8     5
 -0.0026254109     4     8     1     1
 -0.0100468457     4     8     1     3