&FCI NORB=  8,NELEC= 10,MS2=0,
 ORBSYM=1,1,1,1,1,1,1,1
 ISYM=1,
&END
 0.9821238503     1     1     2     2
 0.0711297512     1     1     2     4
 -0.1509398404     1     1     2     6
 0.8587709001     1     1     3     3
 -0.1856821304     1     1     3     7
 0.1248406828     1     1     3     8
 0.0711297512     1     1     4     2
 0.9519491712     1     1     4     4
 0.0834805077     1     1     4     6
 1.0041626006     1     1     5     5
 -0.1509398404     1     1     6     2
 0.0834805077     1     1     6     4
 0.3997303686     1     1     6     6
 -0.1856821304     1     1     7     3
 0.3928934796     1     1     7     7
 -0.1545203663     1     1     7     8
 0.1248406828     1     1     8     3
 -0.1545203663     1     1     8     7
 0.5545153814     1     1     8     8
 -0.9821238503     1     2     2     1
 -0.0069313698     1     2     2     4
 -0.0016961336     1     2     2     6
 0.0300682441     1     2     3     3
 -0.0149276024     1     2     3     7
 0.0155283341     1     2     3     8
 -0.0711297512     1     2     4     1
 0.0354800795     1     2     4     4
 0.0087454363     1     2     4     6
 0.0408020399     1     2     5     5
 0.1509398404     1     2     6     1
 0.0080172312     1     2     6     4
 0.0027768483     1     2     6     6
 -0.0108067750     1     2     7     3
 0.0072366506     1     2     7     7
 -0.0073396330     1     2     7     8
 0.0101703499     1     2     8     3
 -0.0063823589     1     2     8     7
 0.0061225406     1     2     8     8
 -0.0032183541     1     3     2     7
 0.0046884905     1     3     2     8
 -0.8587709001     1     3     3     1
 -0.0300682441     1     3     3     2
 -0.0104696016     1     3     3     4
 0.0047311889     1     3     3     6
 0.0017792120     1     3     4     7
 -0.0059652231     1     3     4     8
 -0.0025216857     1     3     6     7
 -0.0003467376     1     3     6     8
 0.1856821304     1     3     7     1
 0.0108067750     1     3     7     2
 0.0039394924     1     3     7     4
 -0.0057434166     1     3     7     6
 -0.1248406828     1     3     8     1
 -0.0101703499     1     3     8     2
 -0.0032865186     1     3     8     4
 0.0045278687     1     3     8     6
 -0.0711297512     1     4     2     1
 0.0069313698     1     4     2     2
 0.0001479245     1     4     2     6
 0.0104696016     1     4     3     3
 -0.0022842699     1     4     3     7
 -0.0026443030     1     4     3     8
 -0.9519491712     1     4     4     1
 -0.0354800795     1     4     4     2
 0.0106100284     1     4     4     6
 0.0138719798     1     4     5     5
 -0.0834805077     1     4     6     1
 -0.0080172312     1     4     6     2
 0.0054556742     1     4     6     6
 -0.0039394924     1     4     7     3
 0.0038360454     1     4     7     7
 -0.0016215239     1     4     7     8
 0.0032865186     1     4     8     3
 -0.0040218862     1     4     8     7
 0.0061014316     1     4     8     8
 -1.0041626006     1     5     5     1
 -0.0408020399     1     5     5     2
 -0.0138719798     1     5     5     4
 0.0100664430     1     5     5     6
 0.1509398404     1     6     2     1
 0.0016961336     1     6     2     2
 -0.0001479245     1     6     2     4
 -0.0047311889     1     6     3     3
 0.0030485590     1     6     3     7
 -0.0048183547     1     6     3     8
 -0.0834805077     1     6     4     1
 -0.0087454363     1     6     4     2
 -0.0106100284     1     6     4     4
 -0.0100664430     1     6     5     5
 -0.3997303686     1     6     6     1
 -0.0027768483     1     6     6     2
 -0.0054556742     1     6     6     4
 0.0057434166     1     6     7     3
 -0.0028654665     1     6     7     7
 0.0033926053     1     6     7     8
 -0.0045278687     1     6     8     3
 0.0019711203     1     6     8     7
 -0.0011406180     1     6     8     8
 0.0032183541     1     7     2     3
 -0.0008681728     1     7     2     8
 0.1856821304     1     7     3     1
 0.0149276024     1     7     3     2
 0.0022842699     1     7     3     4
 -0.0030485590     1     7     3     6
 -0.0017792120     1     7     4     3
 0.0023565300     1     7     4     8
 0.0025216857     1     7     6     3
 0.0014200969     1     7     6     8
 -0.3928934796     1     7     7     1
 -0.0072366506     1     7     7     2
 -0.0038360454     1     7     7     4
 0.0028654665     1     7     7     6
 0.1545203663     1     7     8     1
 0.0063823589     1     7     8     2
 0.0040218862     1     7     8     4
 -0.0019711203     1     7     8     6
 -0.0046884905     1     8     2     3
 0.0008681728     1     8     2     7
 -0.1248406828     1     8     3     1
 -0.0155283341     1     8     3     2
 0.0026443030     1     8     3     4
 0.0048183547     1     8     3     6
 0.0059652231     1     8     4     3
 -0.0023565300     1     8     4     7
 0.0003467376     1     8     6     3
 -0.0014200969     1     8     6     7
 0.1545203663     1     8     7     1
 0.0073396330     1     8     7     2
 0.0016215239     1     8     7     4
 -0.0033926053     1     8     7     6
 -0.5545153814     1     8     8     1
 -0.0061225406     1     8     8     2
 -0.0061014316     1     8     8     4
 0.0011406180     1     8     8     6
 -0.9821238503     2     1     1     2
 -0.0711297512     2     1     1     4
 0.1509398404     2     1     1     6
 0.0300682441     2     1     3     3
 -0.0108067750     2     1     3     7
 0.0101703499     2     1     3     8
 -0.0069313698     2     1     4     2
 0.0354800795     2     1     4     4
 0.0080172312     2     1     4     6
 0.0408020399     2     1     5     5
 -0.0016961336     2     1     6     2
 0.0087454363     2     1     6     4
 0.0027768483     2     1     6     6
 -0.0149276024     2     1     7     3
 0.0072366506     2     1     7     7
 -0.0063823589     2     1     7     8
 0.0155283341     2     1     8     3
 -0.0073396330     2     1     8     7
 0.0061225406     2     1     8     8
 0.9821238503     2     2     1     1
 0.0069313698     2     2     1     4
 0.0016961336     2     2     1     6
 0.5251155756     2     2     3     3
 -0.0722703407     2     2     3     7
 0.0220923409     2     2     3     8
 0.0069313698     2     2     4     1
 0.5526623431     2     2     4     4
 0.0345085459     2     2     4     6
 0.5831505033     2     2     5     5
 0.0016961336     2     2     6     1
 0.0345085459     2     2     6     4
 0.3351298140     2     2     6     6
 -0.0722703407     2     2     7     3
 0.3279837018     2     2     7     7
 -0.0855111218     2     2     7     8
 0.0220923409     2     2     8     3
 -0.0855111218     2     2     8     7
 0.4730173748     2     2     8     8
 0.0032183541     2     3     1     7
 -0.0046884905     2     3     1     8
 -0.0300682441     2     3     3     1
 -0.5251155756     2     3     3     2
 -0.0027945761     2     3     3     4
 0.0688020227     2     3     3     6
 -0.0145576091     2     3     4     7
 0.0381085808     2     3     4     8
 0.0402660914     2     3     6     7
 -0.0002687099     2     3     6     8
 0.0149276024     2     3     7     1
 0.0722703407     2     3     7     2
 -0.0015000561     2     3     7     4
 0.0230314446     2     3     7     6
 -0.0155283341     2     3     8     1
 -0.0220923409     2     3     8     2
 0.0044687722     2     3     8     4
 0.0025042649     2     3     8     6
 0.0711297512     2     4     1     1
 -0.0069313698     2     4     1     2
 -0.0001479245     2     4     1     6
 0.0027945761     2     4     3     3
 -0.0128992041     2     4     3     7
 0.0337259390     2     4     3     8
 -0.0354800795     2     4     4     1
 -0.5526623431     2     4     4     2
 0.0693595485     2     4     4     6
 0.0064749939     2     4     5     5
 -0.0087454363     2     4     6     1
 -0.0345085459     2     4     6     2
 -0.0121103836     2     4     6     6
 0.0015000561     2     4     7     3
 -0.0141881996     2     4     7     7
 -0.0039397029     2     4     7     8
 -0.0044687722     2     4     8     3
 0.0044688079     2     4     8     7
 -0.0193780612     2     4     8     8
 -0.0408020399     2     5     5     1
 -0.5831505033     2     5     5     2
 -0.0064749939     2     5     5     4
 0.0666943075     2     5     5     6
 -0.1509398404     2     6     1     1
 -0.0016961336     2     6     1     2
 0.0001479245     2     6     1     4
 -0.0688020227     2     6     3     3
 0.0163633465     2     6     3     7
 -0.0019492281     2     6     3     8
 -0.0080172312     2     6     4     1
 -0.0345085459     2     6     4     2
 -0.0693595485     2     6     4     4
 -0.0666943075     2     6     5     5
 -0.0027768483     2     6     6     1
 -0.3351298140     2     6     6     2
 0.0121103836     2     6     6     4
 -0.0230314446     2     6     7     3
 -0.0135503844     2     6     7     7
 0.0214549281     2     6     7     8
 -0.0025042649     2     6     8     3
 0.0122157020     2     6     8     7
 -0.0370239943     2     6     8     8
 -0.0032183541     2     7     1     3
 0.0008681728     2     7     1     8
 0.0108067750     2     7     3     1
 0.0722703407     2     7     3     2
 0.0128992041     2     7     3     4
 -0.0163633465     2     7     3     6
 0.0145576091     2     7     4     3
 -0.0077169689     2     7     4     8
 -0.0402660914     2     7     6     3
 0.0093786646     2     7     6     8
 -0.0072366506     2     7     7     1
 -0.3279837018     2     7     7     2
 0.0141881996     2     7     7     4
 0.0135503844     2     7     7     6
 0.0073396330     2     7     8     1
 0.0855111218     2     7     8     2
 -0.0044688079     2     7     8     4
 -0.0122157020     2     7     8     6
 0.0046884905     2     8     1     3
 -0.0008681728     2     8     1     7
 -0.0101703499     2     8     3     1
 -0.0220923409     2     8     3     2
 -0.0337259390     2     8     3     4
 0.0019492281     2     8     3     6
 -0.0381085808     2     8     4     3
 0.0077169689     2     8     4     7
 0.0002687099     2     8     6     3
 -0.0093786646     2     8     6     7
 0.0063823589     2     8     7     1
 0.0855111218     2     8     7     2
 0.0039397029     2     8     7     4
 -0.0214549281     2     8     7     6
 -0.0061225406     2     8     8     1
 -0.4730173748     2     8     8     2
 0.0193780612     2     8     8     4
 0.0370239943     2     8     8     6
 -0.8587709001     3     1     1     3
 0.1856821304     3     1     1     7
 -0.1248406828     3     1     1     8
 -0.0300682441     3     1     2     3
 0.0108067750     3     1     2     7
 -0.0101703499     3     1     2     8
 -0.0104696016     3     1     4     3
 0.0039394924     3     1     4     7
 -0.0032865186     3     1     4     8
 0.0047311889     3     1     6     3
 -0.0057434166     3     1     6     7
 0.0045278687     3     1     6     8
 -0.0032183541     3     1     7     2
 0.0017792120     3     1     7     4
 -0.0025216857     3     1     7     6
 0.0046884905     3     1     8     2
 -0.0059652231     3     1     8     4
 -0.0003467376     3     1     8     6
 -0.0300682441     3     2     1     3
 0.0149276024     3     2     1     7
 -0.0155283341     3     2     1     8
 -0.5251155756     3     2     2     3
 0.0722703407     3     2     2     7
 -0.0220923409     3     2     2     8
 -0.0027945761     3     2     4     3
 -0.0015000561     3     2     4     7
 0.0044687722     3     2     4     8
 0.0688020227     3     2     6     3
 0.0230314446     3     2     6     7
 0.0025042649     3     2     6     8
 0.0032183541     3     2     7     1
 -0.0145576091     3     2     7     4
 0.0402660914     3     2     7     6
 -0.0046884905     3     2     8     1
 0.0381085808     3     2     8     4
 -0.0002687099     3     2     8     6
 0.8587709001     3     3     1     1
 0.0300682441     3     3     1     2
 0.0104696016     3     3     1     4
 -0.0047311889     3     3     1     6
 0.0300682441     3     3     2     1
 0.5251155756     3     3     2     2
 0.0027945761     3     3     2     4
 -0.0688020227     3     3     2     6
 0.0104696016     3     3     4     1
 0.0027945761     3     3     4     2
 0.5615385390     3     3     4     4
 0.0366469157     3     3     4     6
 0.5874565956     3     3     5     5
 -0.0047311889     3     3     6     1
 -0.0688020227     3     3     6     2
 0.0366469157     3     3     6     4
 0.3386108981     3     3     6     6
 0.3048024420     3     3     7     7
 -0.0604285857     3     3     7     8
 -0.0604285857     3     3     8     7
 0.4361727740     3     3     8     8
 -0.0104696016     3     4     1     3
 0.0022842699     3     4     1     7
 0.0026443030     3     4     1     8
 -0.0027945761     3     4     2     3
 0.0128992041     3     4     2     7
 -0.0337259390     3     4     2     8
 -0.5615385390     3     4     4     3
 0.0925433534     3     4     4     7
 -0.0527457348     3     4     4     8
 -0.0366469157     3     4     6     3
 0.0018072231     3     4     6     7
 -0.0079858669     3     4     6     8
 -0.0017792120     3     4     7     1
 0.0145576091     3     4     7     2
 -0.0091777510     3     4     7     6
 0.0059652231     3     4     8     1
 -0.0381085808     3     4     8     2
 -0.0025018959     3     4     8     6
 -0.5874565956     3     5     5     3
 0.0954016827     3     5     5     7
 -0.0433692997     3     5     5     8
 0.0047311889     3     6     1     3
 -0.0030485590     3     6     1     7
 0.0048183547     3     6     1     8
 0.0688020227     3     6     2     3
 -0.0163633465     3     6     2     7
 0.0019492281     3     6     2     8
 -0.0366469157     3     6     4     3
 0.0100608857     3     6     4     7
 -0.0044351061     3     6     4     8
 -0.3386108981     3     6     6     3
 0.0341490952     3     6     6     7
 0.0174474101     3     6     6     8
 0.0025216857     3     6     7     1
 -0.0402660914     3     6     7     2
 0.0091777510     3     6     7     4
 0.0003467376     3     6     8     1
 0.0002687099     3     6     8     2
 0.0025018959     3     6     8     4
 -0.1856821304     3     7     1     1
 -0.0149276024     3     7     1     2
 -0.0022842699     3     7     1     4
 0.0030485590     3     7     1     6
 -0.0108067750     3     7     2     1
 -0.0722703407     3     7     2     2
 -0.0128992041     3     7     2     4
 0.0163633465     3     7     2     6
 -0.0039394924     3     7     4     1
 0.0015000561     3     7     4     2
 -0.0925433534     3     7     4     4
 -0.0100608857     3     7     4     6
 -0.0954016827     3     7     5     5
 0.0057434166     3     7     6     1
 -0.0230314446     3     7     6     2
 -0.0018072231     3     7     6     4
 -0.0341490952     3     7     6     6
 -0.3048024420     3     7     7     3
 0.0289630151     3     7     7     8
 0.0604285857     3     7     8     3
 -0.0341319820     3     7     8     8
 0.1248406828     3     8     1     1
 0.0155283341     3     8     1     2
 -0.0026443030     3     8     1     4
 -0.0048183547     3     8     1     6
 0.0101703499     3     8     2     1
 0.0220923409     3     8     2     2
 0.0337259390     3     8     2     4
 -0.0019492281     3     8     2     6
 0.0032865186     3     8     4     1
 -0.0044687722     3     8     4     2
 0.0527457348     3     8     4     4
 0.0044351061     3     8     4     6
 0.0433692997     3     8     5     5
 -0.0045278687     3     8     6     1
 -0.0025042649     3     8     6     2
 0.0079858669     3     8     6     4
 -0.0174474101     3     8     6     6
 0.0604285857     3     8     7     3
 -0.0289630151     3     8     7     7
 -0.4361727740     3     8     8     3
 0.0341319820     3     8     8     7
 -0.0711297512     4     1     1     2
 -0.9519491712     4     1     1     4
 -0.0834805077     4     1     1     6
 0.0069313698     4     1     2     2
 -0.0354800795     4     1     2     4
 -0.0080172312     4     1     2     6
 0.0104696016     4     1     3     3
 -0.0039394924     4     1     3     7
 0.0032865186     4     1     3     8
 0.0138719798     4     1     5     5
 0.0001479245     4     1     6     2
 0.0106100284     4     1     6     4
 0.0054556742     4     1     6     6
 -0.0022842699     4     1     7     3
 0.0038360454     4     1     7     7
 -0.0040218862     4     1     7     8
 -0.0026443030     4     1     8     3
 -0.0016215239     4     1     8     7
 0.0061014316     4     1     8     8
 0.0711297512     4     2     1     1
 -0.0354800795     4     2     1     4
 -0.0087454363     4     2     1     6
 -0.0069313698     4     2     2     1
 -0.5526623431     4     2     2     4
 -0.0345085459     4     2     2     6
 0.0027945761     4     2     3     3
 0.0015000561     4     2     3     7
 -0.0044687722     4     2     3     8
 0.0064749939     4     2     5     5
 -0.0001479245     4     2     6     1
 0.0693595485     4     2     6     4
 -0.0121103836     4     2     6     6
 -0.0128992041     4     2     7     3
 -0.0141881996     4     2     7     7
 0.0044688079     4     2     7     8
 0.0337259390     4     2     8     3
 -0.0039397029     4     2     8     7
 -0.0193780612     4     2     8     8
 -0.0017792120     4     3     1     7
 0.0059652231     4     3     1     8
 0.0145576091     4     3     2     7
 -0.0381085808     4     3     2     8
 -0.0104696016     4     3     3     1
 -0.0027945761     4     3     3     2
 -0.5615385390     4     3     3     4
 -0.0366469157     4     3     3     6
 -0.0091777510     4     3     6     7
 -0.0025018959     4     3     6     8
 0.0022842699     4     3     7     1
 0.0128992041     4     3     7     2
 0.0925433534     4     3     7     4
 0.0018072231     4     3     7     6
 0.0026443030     4     3     8     1
 -0.0337259390     4     3     8     2
 -0.0527457348     4     3     8     4
 -0.0079858669     4     3     8     6
 0.9519491712     4     4     1     1
 0.0354800795     4     4     1     2
 -0.0106100284     4     4     1     6
 0.0354800795     4     4     2     1
 0.5526623431     4     4     2     2
 -0.0693595485     4     4     2     6
 0.5615385390     4     4     3     3
 -0.0925433534     4     4     3     7
 0.0527457348     4     4     3     8
 0.6152579462     4     4     5     5
 -0.0106100284     4     4     6     1
 -0.0693595485     4     4     6     2
 0.3221568562     4     4     6     6
 -0.0925433534     4     4     7     3
 0.3152270913     4     4     7     7
 -0.0776606572     4     4     7     8
 0.0527457348     4     4     8     3
 -0.0776606572     4     4     8     7
 0.4273053263     4     4     8     8
 -0.0138719798     4     5     5     1
 -0.0064749939     4     5     5     2
 -0.6152579462     4     5     5     4
 -0.0454406779     4     5     5     6
 0.0834805077     4     6     1     1
 0.0087454363     4     6     1     2
 0.0106100284     4     6     1     4
 0.0080172312     4     6     2     1
 0.0345085459     4     6     2     2
 0.0693595485     4     6     2     4
 0.0366469157     4     6     3     3
 -0.0100608857     4     6     3     7
 0.0044351061     4     6     3     8
 0.0454406779     4     6     5     5
 -0.0054556742     4     6     6     1
 0.0121103836     4     6     6     2
 -0.3221568562     4     6     6     4
 -0.0018072231     4     6     7     3
 0.0145603452     4     6     7     7
 -0.0352251287     4     6     7     8
 0.0079858669     4     6     8     3
 -0.0063491905     4     6     8     7
 0.0150344203     4     6     8     8
 0.0017792120     4     7     1     3
 -0.0023565300     4     7     1     8
 -0.0145576091     4     7     2     3
 0.0077169689     4     7     2     8
 0.0039394924     4     7     3     1
 -0.0015000561     4     7     3     2
 0.0925433534     4     7     3     4
 0.0100608857     4     7     3     6
 0.0091777510     4     7     6     3
 -0.0289294446     4     7     6     8
 -0.0038360454     4     7     7     1
 0.0141881996     4     7     7     2
 -0.3152270913     4     7     7     4
 -0.0145603452     4     7     7     6
 0.0016215239     4     7     8     1
 0.0039397029     4     7     8     2
 0.0776606572     4     7     8     4
 0.0063491905     4     7     8     6
 -0.0059652231     4     8     1     3
 0.0023565300     4     8     1     7
 0.0381085808     4     8     2     3
 -0.0077169689     4     8     2     7
 -0.0032865186     4     8     3     1
 0.0044687722     4     8     3     2
 -0.0527457348     4     8     3     4
 -0.0044351061     4     8     3     6
 0.0025018959     4     8     6     3
 0.0289294446     4     8     6     7
 0.0040218862     4     8     7     1
 -0.0044688079     4     8     7     2
 0.0776606572     4     8     7     4
 0.0352251287     4     8     7     6
 -0.0061014316     4     8     8     1
 0.0193780612     4     8     8     2
 -0.4273053263     4     8     8     4
 -0.0150344203     4     8     8     6
 -1.0041626006     5     1     1     5
 -0.0408020399     5     1     2     5
 -0.0138719798     5     1     4     5
 0.0100664430     5     1     6     5
 -0.0408020399     5     2     1     5
 -0.5831505033     5     2     2     5
 -0.0064749939     5     2     4     5
 0.0666943075     5     2     6     5
 -0.5874565956     5     3     3     5
 0.0954016827     5     3     7     5
 -0.0433692997     5     3     8     5
 -0.0138719798     5     4     1     5
 -0.0064749939     5     4     2     5
 -0.6152579462     5     4     4     5
 -0.0454406779     5     4     6     5
 1.0041626006     5     5     1     1
 0.0408020399     5     5     1     2
 0.0138719798     5     5     1     4
 -0.0100664430     5     5     1     6
 0.0408020399     5     5     2     1
 0.5831505033     5     5     2     2
 0.0064749939     5     5     2     4
 -0.0666943075     5     5     2     6
 0.5874565956     5     5     3     3
 -0.0954016827     5     5     3     7
 0.0433692997     5     5     3     8
 0.0138719798     5     5     4     1
 0.0064749939     5     5     4     2
 0.6152579462     5     5     4     4
 0.0454406779     5     5     4     6
 -0.0100664430     5     5     6     1
 -0.0666943075     5     5     6     2
 0.0454406779     5     5     6     4
 0.3362053560     5     5     6     6
 -0.0954016827     5     5     7     3
 0.3233080798     5     5     7     7
 -0.0872155966     5     5     7     8
 0.0433692997     5     5     8     3
 -0.0872155966     5     5     8     7
 0.4539083317     5     5     8     8
 0.0100664430     5     6     1     5
 0.0666943075     5     6     2     5
 -0.0454406779     5     6     4     5
 -0.3362053560     5     6     6     5
 0.0954016827     5     7     3     5
 -0.3233080798     5     7     7     5
 0.0872155966     5     7     8     5
 -0.0433692997     5     8     3     5
 0.0872155966     5     8     7     5
 -0.4539083317     5     8     8     5
 0.1509398404     6     1     1     2
 -0.0834805077     6     1     1     4
 -0.3997303686     6     1     1     6
 0.0016961336     6     1     2     2
 -0.0087454363     6     1     2     4
 -0.0027768483     6     1     2     6
 -0.0047311889     6     1     3     3
 0.0057434166     6     1     3     7
 -0.0045278687     6     1     3     8
 -0.0001479245     6     1     4     2
 -0.0106100284     6     1     4     4
 -0.0054556742     6     1     4     6
 -0.0100664430     6     1     5     5
 0.0030485590     6     1     7     3
 -0.0028654665     6     1     7     7
 0.0019711203     6     1     7     8
 -0.0048183547     6     1     8     3
 0.0033926053     6     1     8     7
 -0.0011406180     6     1     8     8
 -0.1509398404     6     2     1     1
 -0.0080172312     6     2     1     4
 -0.0027768483     6     2     1     6
 -0.0016961336     6     2     2     1
 -0.0345085459     6     2     2     4
 -0.3351298140     6     2     2     6
 -0.0688020227     6     2     3     3
 -0.0230314446     6     2     3     7
 -0.0025042649     6     2     3     8
 0.0001479245     6     2     4     1
 -0.0693595485     6     2     4     4
 0.0121103836     6     2     4     6
 -0.0666943075     6     2     5     5
 0.0163633465     6     2     7     3
 -0.0135503844     6     2     7     7
 0.0122157020     6     2     7     8
 -0.0019492281     6     2     8     3
 0.0214549281     6     2     8     7
 -0.0370239943     6     2     8     8
 0.0025216857     6     3     1     7
 0.0003467376     6     3     1     8
 -0.0402660914     6     3     2     7
 0.0002687099     6     3     2     8
 0.0047311889     6     3     3     1
 0.0688020227     6     3     3     2
 -0.0366469157     6     3     3     4
 -0.3386108981     6     3     3     6
 0.0091777510     6     3     4     7
 0.0025018959     6     3     4     8
 -0.0030485590     6     3     7     1
 -0.0163633465     6     3     7     2
 0.0100608857     6     3     7     4
 0.0341490952     6     3     7     6
 0.0048183547     6     3     8     1
 0.0019492281     6     3     8     2
 -0.0044351061     6     3     8     4
 0.0174474101     6     3     8     6
 0.0834805077     6     4     1     1
 0.0080172312     6     4     1     2
 -0.0054556742     6     4     1     6
 0.0087454363     6     4     2     1
 0.0345085459     6     4     2     2
 0.0121103836     6     4     2     6
 0.0366469157     6     4     3     3
 -0.0018072231     6     4     3     7
 0.0079858669     6     4     3     8
 0.0106100284     6     4     4     1
 0.0693595485     6     4     4     2
 -0.3221568562     6     4     4     6
 0.0454406779     6     4     5     5
 -0.0100608857     6     4     7     3
 0.0145603452     6     4     7     7
 -0.0063491905     6     4     7     8
 0.0044351061     6     4     8     3
 -0.0352251287     6     4     8     7
 0.0150344203     6     4     8     8
 0.0100664430     6     5     5     1
 0.0666943075     6     5     5     2
 -0.0454406779     6     5     5     4
 -0.3362053560     6     5     5     6
 0.3997303686     6     6     1     1
 0.0027768483     6     6     1     2
 0.0054556742     6     6     1     4
 0.0027768483     6     6     2     1
 0.3351298140     6     6     2     2
 -0.0121103836     6     6     2     4
 0.3386108981     6     6     3     3
 -0.0341490952     6     6     3     7
 -0.0174474101     6     6     3     8
 0.0054556742     6     6     4     1
 -0.0121103836     6     6     4     2
 0.3221568562     6     6     4     4
 0.3362053560     6     6     5     5
 -0.0341490952     6     6     7     3
 0.2154599595     6     6     7     7
 -0.0326431304     6     6     7     8
 -0.0174474101     6     6     8     3
 -0.0326431304     6     6     8     7
 0.3183547662     6     6     8     8
 -0.0025216857     6     7     1     3
 -0.0014200969     6     7     1     8
 0.0402660914     6     7     2     3
 -0.0093786646     6     7     2     8
 -0.0057434166     6     7     3     1
 0.0230314446     6     7     3     2
 0.0018072231     6     7     3     4
 0.0341490952     6     7     3     6
 -0.0091777510     6     7     4     3
 0.0289294446     6     7     4     8
 0.0028654665     6     7     7     1
 0.0135503844     6     7     7     2
 -0.0145603452     6     7     7     4
 -0.2154599595     6     7     7     6
 -0.0033926053     6     7     8     1
 -0.0214549281     6     7     8     2
 0.0352251287     6     7     8     4
 0.0326431304     6     7     8     6
 -0.0003467376     6     8     1     3
 0.0014200969     6     8     1     7
 -0.0002687099     6     8     2     3
 0.0093786646     6     8     2     7
 0.0045278687     6     8     3     1
 0.0025042649     6     8     3     2
 -0.0079858669     6     8     3     4
 0.0174474101     6     8     3     6
 -0.0025018959     6     8     4     3
 -0.0289294446     6     8     4     7
 -0.0019711203     6     8     7     1
 -0.0122157020     6     8     7     2
 0.0063491905     6     8     7     4
 0.0326431304     6     8     7     6
 0.0011406180     6     8     8     1
 0.0370239943     6     8     8     2
 -0.0150344203     6     8     8     4
 -0.3183547662     6     8     8     6
 0.1856821304     7     1     1     3
 -0.3928934796     7     1     1     7
 0.1545203663     7     1     1     8
 0.0149276024     7     1     2     3
 -0.0072366506     7     1     2     7
 0.0063823589     7     1     2     8
 0.0032183541     7     1     3     2
 -0.0017792120     7     1     3     4
 0.0025216857     7     1     3     6
 0.0022842699     7     1     4     3
 -0.0038360454     7     1     4     7
 0.0040218862     7     1     4     8
 -0.0030485590     7     1     6     3
 0.0028654665     7     1     6     7
 -0.0019711203     7     1     6     8
 -0.0008681728     7     1     8     2
 0.0023565300     7     1     8     4
 0.0014200969     7     1     8     6
 0.0108067750     7     2     1     3
 -0.0072366506     7     2     1     7
 0.0073396330     7     2     1     8
 0.0722703407     7     2     2     3
 -0.3279837018     7     2     2     7
 0.0855111218     7     2     2     8
 -0.0032183541     7     2     3     1
 0.0145576091     7     2     3     4
 -0.0402660914     7     2     3     6
 0.0128992041     7     2     4     3
 0.0141881996     7     2     4     7
 -0.0044688079     7     2     4     8
 -0.0163633465     7     2     6     3
 0.0135503844     7     2     6     7
 -0.0122157020     7     2     6     8
 0.0008681728     7     2     8     1
 -0.0077169689     7     2     8     4
 0.0093786646     7     2     8     6
 -0.1856821304     7     3     1     1
 -0.0108067750     7     3     1     2
 -0.0039394924     7     3     1     4
 0.0057434166     7     3     1     6
 -0.0149276024     7     3     2     1
 -0.0722703407     7     3     2     2
 0.0015000561     7     3     2     4
 -0.0230314446     7     3     2     6
 -0.3048024420     7     3     3     7
 0.0604285857     7     3     3     8
 -0.0022842699     7     3     4     1
 -0.0128992041     7     3     4     2
 -0.0925433534     7     3     4     4
 -0.0018072231     7     3     4     6
 -0.0954016827     7     3     5     5
 0.0030485590     7     3     6     1
 0.0163633465     7     3     6     2