&FCI NORB= 14,NELEC= 10,MS2=0,
 ORBSYM=1,1,1,1,1,1,1,1,1,1,1,1,1,1
 ISYM=1,
&END
 0.9846230309     1     1     2     2
 -0.0676456060     1     1     2     4
 -0.1284253163     1     1     2     6
 -0.0349985908     1     1     2     9
 0.1106341088     1     1     2    10
 0.0743150146     1     1     2    12
 0.8702118756     1     1     3     3
 -0.1488911713     1     1     3     7
 -0.0783100413     1     1     3     8
 -0.2333619470     1     1     3    13
 -0.0676456060     1     1     4     2
 0.9524226754     1     1     4     4
 -0.0684276273     1     1     4     6
 0.1668961639     1     1     4     9
 0.1628780160     1     1     4    10
 0.0513897897     1     1     4    12
 1.0003477070     1     1     5     5
 0.2945995927     1     1     5    11
 -0.1284253163     1     1     6     2
 -0.0684276273     1     1     6     4
 0.3152194766     1     1     6     6
 -0.0074404318     1     1     6     9
 -0.1150688975     1     1     6    10
 -0.0618707938     1     1     6    12
 -0.1488911713     1     1     7     3
 0.2836071726     1     1     7     7
 0.0650419767     1     1     7     8
 0.1473415447     1     1     7    13
 -0.0783100413     1     1     8     3
 0.0650419767     1     1     8     7
 0.3887817703     1     1     8     8
 0.0792819966     1     1     8    13
 -0.0349985908     1     1     9     2
 0.1668961639     1     1     9     4
 -0.0074404318     1     1     9     6
 0.3820781419     1     1     9     9
 0.0348774034     1     1     9    10
 0.0247143752     1     1     9    12
 0.1106341088     1     1    10     2
 0.1628780160     1     1    10     4
 -0.1150688975     1     1    10     6
 0.0348774034     1     1    10     9
 0.4564737831     1     1    10    10
 0.0437089821     1     1    10    12
 0.2945995927     1     1    11     5
 0.5389674315     1     1    11    11
 0.0743150146     1     1    12     2
 0.0513897897     1     1    12     4
 -0.0618707938     1     1    12     6
 0.0247143752     1     1    12     9
 0.0437089821     1     1    12    10
 0.3780164997     1     1    12    12
 -0.2333619470     1     1    13     3
 0.1473415447     1     1    13     7
 0.0792819966     1     1    13     8
 0.4773994550     1     1    13    13
 0.3617745776     1     1    14    14
 -0.9846230309     1     2     2     1
 0.0069579775     1     2     2     4
 -0.0013256653     1     2     2     6
 0.0030180817     1     2     2     9
 0.0036379346     1     2     2    10
 0.0015712634     1     2     2    12
 0.0308707434     1     2     3     3
 -0.0108973058     1     2     3     7
 -0.0087249450     1     2     3     8
 -0.0212138633     1     2     3    13
 0.0676456060     1     2     4     1
 0.0359053885     1     2     4     4
 -0.0063803610     1     2     4     6
 0.0118216218     1     2     4     9
 0.0150721961     1     2     4    10
 0.0065014726     1     2     4    12
 0.0409238160     1     2     5     5
 0.0243019728     1     2     5    11
 0.1284253163     1     2     6     1
 -0.0062281718     1     2     6     4
 0.0013700355     1     2     6     6
 -0.0022067305     1     2     6     9
 -0.0032802831     1     2     6    10
 -0.0014194002     1     2     6    12
 -0.0081780886     1     2     7     3
 0.0034529648     1     2     7     7
 0.0027073600     1     2     7     8
 0.0069523085     1     2     7    13
 -0.0058699265     1     2     8     3
 0.0023832198     1     2     8     7
 0.0019956505     1     2     8     8
 0.0044144187     1     2     8    13
 0.0349985908     1     2     9     1
 0.0087894230     1     2     9     4
 -0.0015064744     1     2     9     6
 0.0040055929     1     2     9     9
 0.0047137709     1     2     9    10
 0.0014847303     1     2     9    12
 -0.1106341088     1     2    10     1
 0.0124978373     1     2    10     4
 -0.0026954596     1     2    10     6
 0.0053737176     1     2    10     9
 0.0064614152     1     2    10    10
 0.0025987330     1     2    10    12
 0.0180433490     1     2    11     5
 0.0137493847     1     2    11    11
 -0.0743150146     1     2    12     1
 0.0049892806     1     2    12     4
 -0.0010599244     1     2    12     6
 0.0015980476     1     2    12     9
 0.0023625526     1     2    12    10
 0.0008684843     1     2    12    12
 -0.0144772207     1     2    13     3
 0.0063457858     1     2    13     7
 0.0045813435     1     2    13     8
 0.0122957831     1     2    13    13
 -0.0002877788     1     2    14    14
 -0.0020756874     1     3     2     7
 -0.0023998732     1     3     2     8
 -0.0055935221     1     3     2    13
 -0.8702118756     1     3     3     1
 -0.0308707434     1     3     3     2
 0.0105100729     1     3     3     4
 0.0041377997     1     3     3     6
 0.0027889301     1     3     3     9
 0.0006769547     1     3     3    10
 -0.0042765890     1     3     3    12
 -0.0010365315     1     3     4     7
 -0.0040992184     1     3     4     8
 -0.0014178095     1     3     4    13
 -0.0033825069     1     3     5    14
 -0.0018532416     1     3     6     7
 0.0004270842     1     3     6     8
 -0.0016701264     1     3     6    13
 0.1488911713     1     3     7     1
 0.0081780886     1     3     7     2
 -0.0029028981     1     3     7     4
 -0.0036579050     1     3     7     6
 -0.0012836600     1     3     7     9
 0.0019471617     1     3     7    10
 0.0011807748     1     3     7    12
 0.0783100413     1     3     8     1
 0.0058699265     1     3     8     2
 -0.0019336904     1     3     8     4
 -0.0017635514     1     3     8     6
 0.0010246093     1     3     8     9
 0.0040524590     1     3     8    10
 0.0027120456     1     3     8    12
 -0.0009145425     1     3     9     7
 0.0000427506     1     3     9     8
 -0.0028764497     1     3     9    13
 0.0014365195     1     3    10     7
 0.0018427019     1     3    10     8
 0.0032862700     1     3    10    13
 0.0008706925     1     3    11    14
 -0.0006648905     1     3    12     7
 0.0005969953     1     3    12     8
 -0.0004797859     1     3    12    13
 0.2333619470     1     3    13     1
 0.0144772207     1     3    13     2
 -0.0050338790     1     3    13     4
 -0.0052385062     1     3    13     6
 -0.0036077031     1     3    13     9
 0.0043693830     1     3    13    10
 0.0031349839     1     3    13    12
 0.0003157185     1     3    14     5
 0.0032290357     1     3    14    11
 0.0676456060     1     4     2     1
 -0.0069579775     1     4     2     2
 0.0003263563     1     4     2     6
 0.0023283144     1     4     2     9
 0.0016087393     1     4     2    10
 0.0011249058     1     4     2    12
 -0.0105100729     1     4     3     3
 0.0020138390     1     4     3     7
 -0.0021301427     1     4     3     8
 0.0039265086     1     4     3    13
 -0.9524226754     1     4     4     1
 -0.0359053885     1     4     4     2
 0.0082624067     1     4     4     6
 0.0006147373     1     4     4     9
 -0.0102822167     1     4     4    10
 -0.0021085801     1     4     4    12
 -0.0137093212     1     4     5     5
 -0.0078232679     1     4     5    11
 0.0684276273     1     4     6     1
 0.0062281718     1     4     6     2
 -0.0033095852     1     4     6     6
 0.0014202685     1     4     6     9
 0.0035923024     1     4     6    10
 0.0014657020     1     4     6    12
 0.0029028981     1     4     7     3
 -0.0021184913     1     4     7     7
 -0.0009662412     1     4     7     8
 -0.0024613607     1     4     7    13
 0.0019336904     1     4     8     3
 -0.0021963795     1     4     8     7
 -0.0012974872     1     4     8     8
 -0.0053384117     1     4     8    13
 -0.1668961639     1     4     9     1
 -0.0087894230     1     4     9     2
 0.0042713188     1     4     9     6
 0.0010192959     1     4     9     9
 -0.0019232871     1     4     9    10
 -0.0032440771     1     4     9    12
 -0.1628780160     1     4    10     1
 -0.0124978373     1     4    10     2
 0.0052509586     1     4    10     6
 0.0017718894     1     4    10     9
 -0.0068504866     1     4    10    10
 -0.0030972657     1     4    10    12
 -0.0063493748     1     4    11     5
 -0.0045501372     1     4    11    11
 -0.0513897897     1     4    12     1
 -0.0049892806     1     4    12     2
 0.0026379490     1     4    12     6
 -0.0025031315     1     4    12     9
 -0.0041525730     1     4    12    10
 -0.0032215321     1     4    12    12
 0.0050338790     1     4    13     3
 -0.0022545402     1     4    13     7
 -0.0028108913     1     4    13     8
 -0.0041980117     1     4    13    13
 -0.0024103594     1     4    14    14
 0.0048424421     1     5     2    11
 -0.0037641353     1     5     3    14
 -0.0010868007     1     5     4    11
 -1.0003477070     1     5     5     1
 -0.0409238160     1     5     5     2
 0.0137093212     1     5     5     4
 0.0078724019     1     5     5     6
 0.0075381569     1     5     5     9
 -0.0081510146     1     5     5    10
 -0.0061685909     1     5     5    12
 0.0021615176     1     5     6    11
 -0.0004227796     1     5     7    14
 0.0003918382     1     5     8    14
 -0.0014237124     1     5     9    11
 0.0011915774     1     5    10    11
 -0.2945995927     1     5    11     1
 -0.0180433490     1     5    11     2
 0.0063493748     1     5    11     4
 0.0070271724     1     5    11     6
 0.0030034789     1     5    11     9
 -0.0040242163     1     5    11    10
 -0.0033406019     1     5    11    12
 0.0005027571     1     5    12    11
 0.0000229214     1     5    13    14
 -0.0003157185     1     5    14     3
 -0.0016558149     1     5    14     7
 -0.0005083628     1     5    14     8
 -0.0023454463     1     5    14    13
 0.1284253163     1     6     2     1
 0.0013256653     1     6     2     2
 -0.0003263563     1     6     2     4
 -0.0007070186     1     6     2     9
 -0.0006099842     1     6     2    10
 -0.0003755483     1     6     2    12
 -0.0041377997     1     6     3     3
 0.0017874463     1     6     3     7
 0.0021961982     1     6     3     8
 0.0035829140     1     6     3    13
 0.0684276273     1     6     4     1
 0.0063803610     1     6     4     2
 -0.0082624067     1     6     4     4
 -0.0028777407     1     6     4     9
 -0.0017042754     1     6     4    10
 -0.0011806037     1     6     4    12
 -0.0078724019     1     6     5     5
 -0.0048165375     1     6     5    11
 -0.3152194766     1     6     6     1
 -0.0013700355     1     6     6     2
 0.0033095852     1     6     6     4
 0.0008490855     1     6     6     9
 0.0008146150     1     6     6    10
 0.0003311842     1     6     6    12
 0.0036579050     1     6     7     3
 -0.0011686159     1     6     7     7
 -0.0010002918     1     6     7     8
 -0.0026041620     1     6     7    13
 0.0017635514     1     6     8     3
 -0.0003737671     1     6     8     7
 -0.0003407727     1     6     8     8
 -0.0004869446     1     6     8    13
 0.0074404318     1     6     9     1
 0.0015064744     1     6     9     2
 -0.0042713188     1     6     9     4
 -0.0017708452     1     6     9     9
 -0.0016914907     1     6     9    10
 -0.0001290548     1     6     9    12
 0.1150688975     1     6    10     1
 0.0026954596     1     6    10     2
 -0.0052509586     1     6    10     4
 -0.0022911519     1     6    10     9
 -0.0010787465     1     6    10    10
 -0.0003737066     1     6    10    12
 -0.0070271724     1     6    11     5
 -0.0045704517     1     6    11    11
 0.0618707938     1     6    12     1
 0.0010599244     1     6    12     2
 -0.0026379490     1     6    12     4
 -0.0003881509     1     6    12     9
 -0.0003817701     1     6    12    10
 0.0001993570     1     6    12    12
 0.0052385062     1     6    13     3
 -0.0019567320     1     6    13     7
 -0.0012230796     1     6    13     8
 -0.0038182432     1     6    13    13
 0.0005439779     1     6    14    14
 0.0020756874     1     7     2     3
 0.0003223907     1     7     2     8
 0.0005759564     1     7     2    13
 0.1488911713     1     7     3     1
 0.0108973058     1     7     3     2
 -0.0020138390     1     7     3     4
 -0.0017874463     1     7     3     6
 -0.0003852083     1     7     3     9
 0.0004563865     1     7     3    10
 0.0018284938     1     7     3    12
 0.0010365315     1     7     4     3
 0.0012407368     1     7     4     8
 -0.0001911899     1     7     4    13
 0.0012462269     1     7     5    14
 0.0018532416     1     7     6     3
 -0.0006255733     1     7     6     8
 -0.0006439176     1     7     6    13
 -0.2836071726     1     7     7     1
 -0.0034529648     1     7     7     2
 0.0021184913     1     7     7     4
 0.0011686159     1     7     7     6
 0.0008011333     1     7     7     9
 -0.0003374351     1     7     7    10
 -0.0002936645     1     7     7    12
 -0.0650419767     1     7     8     1
 -0.0023832198     1     7     8     2
 0.0021963795     1     7     8     4
 0.0003737671     1     7     8     6
 0.0001346428     1     7     8     9
 -0.0008192926     1     7     8    10
 -0.0007312031     1     7     8    12
 0.0009145425     1     7     9     3
 -0.0002580576     1     7     9     8
 0.0003959515     1     7     9    13
 -0.0014365195     1     7    10     3
 -0.0002851594     1     7    10     8
 -0.0001902124     1     7    10    13
 -0.0003113554     1     7    11    14
 0.0006648905     1     7    12     3
 -0.0003847593     1     7    12     8
 -0.0002751890     1     7    12    13
 -0.1473415447     1     7    13     1
 -0.0063457858     1     7    13     2
 0.0022545402     1     7    13     4
 0.0019567320     1     7    13     6
 0.0014063936     1     7    13     9
 -0.0015874793     1     7    13    10
 -0.0011652807     1     7    13    12
 0.0016558149     1     7    14     5
 -0.0000611578     1     7    14    11
 0.0023998732     1     8     2     3
 -0.0003223907     1     8     2     7
 -0.0001863818     1     8     2    13
 0.0783100413     1     8     3     1
 0.0087249450     1     8     3     2
 0.0021301427     1     8     3     4
 -0.0021961982     1     8     3     6
 0.0009596458     1     8     3     9
 0.0022072066     1     8     3    10
 0.0021097604     1     8     3    12
 0.0040992184     1     8     4     3
 -0.0012407368     1     8     4     7
 -0.0025305514     1     8     4    13
 0.0008785922     1     8     5    14
 -0.0004270842     1     8     6     3
 0.0006255733     1     8     6     7
 0.0007388652     1     8     6    13
 -0.0650419767     1     8     7     1
 -0.0027073600     1     8     7     2
 0.0009662412     1     8     7     4
 0.0010002918     1     8     7     6
 0.0003909029     1     8     7     9
 -0.0005374611     1     8     7    10
 -0.0003485483     1     8     7    12
 -0.3887817703     1     8     8     1
 -0.0019956505     1     8     8     2
 0.0012974872     1     8     8     4
 0.0003407727     1     8     8     6
 -0.0000257262     1     8     8     9
 -0.0007761542     1     8     8    10
 -0.0005885234     1     8     8    12
 -0.0000427506     1     8     9     3
 0.0002580576     1     8     9     7
 0.0007805977     1     8     9    13
 -0.0018427019     1     8    10     3
 0.0002851594     1     8    10     7
 0.0003979824     1     8    10    13
 -0.0002064076     1     8    11    14
 -0.0005969953     1     8    12     3
 0.0003847593     1     8    12     7
 0.0005180953     1     8    12    13
 -0.0792819966     1     8    13     1
 -0.0045813435     1     8    13     2
 0.0028108913     1     8    13     4
 0.0012230796     1     8    13     6
 0.0014277649     1     8    13     9
 -0.0006471396     1     8    13    10
 -0.0006680380     1     8    13    12
 0.0005083628     1     8    14     5
 -0.0004643236     1     8    14    11
 0.0349985908     1     9     2     1
 -0.0030180817     1     9     2     2
 -0.0023283144     1     9     2     4
 0.0007070186     1     9     2     6
 -0.0006865680     1     9     2    10
 -0.0001379716     1     9     2    12
 -0.0027889301     1     9     3     3
 0.0003852083     1     9     3     7
 -0.0009596458     1     9     3     8
 0.0008050339     1     9     3    13
 -0.1668961639     1     9     4     1
 -0.0118216218     1     9     4     2
 -0.0006147373     1     9     4     4
 0.0028777407     1     9     4     6
 -0.0037234432     1     9     4    10
 -0.0007580365     1     9     4    12
 -0.0075381569     1     9     5     5
 -0.0044831504     1     9     5    11
 0.0074404318     1     9     6     1
 0.0022067305     1     9     6     2
 -0.0014202685     1     9     6     4
 -0.0008490855     1     9     6     6
 0.0006019188     1     9     6    10
 0.0002594204     1     9     6    12
 0.0012836600     1     9     7     3
 -0.0008011333     1     9     7     7
 -0.0003909029     1     9     7     8
 -0.0010086749     1     9     7    13
 -0.0010246093     1     9     8     3
 -0.0001346428     1     9     8     7
 0.0000257262     1     9     8     8
 -0.0006430767     1     9     8    13
 -0.3820781419     1     9     9     1
 -0.0040055929     1     9     9     2
 -0.0010192959     1     9     9     4
 0.0017708452     1     9     9     6
 -0.0012854641     1     9     9    10
 -0.0013799876     1     9     9    12
 -0.0348774034     1     9    10     1
 -0.0053737176     1     9    10     2
 -0.0017718894     1     9    10     4
 0.0022911519     1     9    10     6
 -0.0033026104     1     9    10    10
 -0.0014769858     1     9    10    12
 -0.0030034789     1     9    11     5
 -0.0019900077     1     9    11    11
 -0.0247143752     1     9    12     1
 -0.0015980476     1     9    12     2
 0.0025031315     1     9    12     4
 0.0003881509     1     9    12     6
 -0.0002849887     1     9    12    10
 -0.0006250977     1     9    12    12
 0.0036077031     1     9    13     3
 -0.0014063936     1     9    13     7
 -0.0014277649     1     9    13     8
 -0.0026563427     1     9    13    13
 -0.0007998302     1     9    14    14
 -0.1106341088     1    10     2     1
 -0.0036379346     1    10     2     2
 -0.0016087393     1    10     2     4
 0.0006099842     1    10     2     6
 0.0006865680     1    10     2     9
 0.0002286654     1    10     2    12
 -0.0006769547     1    10     3     3
 -0.0004563865     1    10     3     7
 -0.0022072066     1    10     3     8
 -0.0010253094     1    10     3    13
 -0.1628780160     1    10     4     1
 -0.0150721961     1    10     4     2
 0.0102822167     1    10     4     4
 0.0017042754     1    10     4     6
 0.0037234432     1    10     4     9
 0.0010285077     1    10     4    12
 0.0081510146     1    10     5     5
 0.0051144474     1    10     5    11
 0.1150688975     1    10     6     1
 0.0032802831     1    10     6     2
 -0.0035923024     1    10     6     4
 -0.0008146150     1    10     6     6
 -0.0006019188     1    10     6     9
 0.0000076830     1    10     6    12
 -0.0019471617     1    10     7     3
 0.0003374351     1    10     7     7
 0.0005374611     1    10     7     8
 0.0013967404     1    10     7    13
 -0.0040524590     1    10     8     3
 0.0008192926     1    10     8     7
 0.0007761542     1    10     8     8
 0.0010448730     1    10     8    13
 -0.0348774034     1    10     9     1
 -0.0047137709     1    10     9     2
 0.0019232871     1    10     9     4
 0.0016914907     1    10     9     6
 0.0012854641     1    10     9     9
 -0.0011910418     1    10     9    12
 -0.4564737831     1    10    10     1
 -0.0064614152     1    10    10     2
 0.0068504866     1    10    10     4
 0.0010787465     1    10    10     6
 0.0033026104     1    10    10     9
 -0.0001662703     1    10    10    12
 0.0040242163     1    10    11     5
 0.0027186490     1    10    11    11
 -0.0437089821     1    10    12     1
 -0.0023625526     1    10    12     2
 0.0041525730     1    10    12     4
 0.0003817701     1    10    12     6
 0.0002849887     1    10    12     9
 -0.0007280152     1    10    12    12
 -0.0043693830     1    10    13     3
 0.0015874793     1    10    13     7
 0.0006471396     1    10    13     8
 0.0031411621     1    10    13    13
 -0.0011374393     1    10    14    14
 -0.0048424421     1    11     2     5
 -0.0023154005     1    11     3    14
 0.0010868007     1    11     4     5
 -0.2945995927     1    11     5     1
 -0.0243019728     1    11     5     2
 0.0078232679     1    11     5     4
 0.0048165375     1    11     5     6
 0.0044831504     1    11     5     9
 -0.0051144474     1    11     5    10
 -0.0037888403     1    11     5    12
 -0.0021615176     1    11     6     5
 -0.0002461602     1    11     7    14
 0.0002582270     1    11     8    14
 0.0014237124     1    11     9     5
 -0.0011915774     1    11    10     5
 -0.5389674315     1    11    11     1
 -0.0137493847     1    11    11     2
 0.0045501372     1    11    11     4
 0.0045704517     1    11    11     6
 0.0019900077     1    11    11     9
 -0.0027186490     1    11    11    10
 -0.0022258043     1    11    11    12
 -0.0005027571     1    11    12     5
 0.0000191248     1    11    13    14
 -0.0032290357     1    11    14     3
 0.0000611578     1    11    14     7
 0.0004643236     1    11    14     8
 0.0005974801     1    11    14    13
 -0.0743150146     1    12     2     1
 -0.0015712634     1    12     2     2
 -0.0011249058     1    12     2     4
 0.0003755483     1    12     2     6
 0.0001379716     1    12     2     9
 -0.0002286654     1    12     2    10
 0.0042765890     1    12     3     3
 -0.0018284938     1    12     3     7
 -0.0021097604     1    12     3     8
 -0.0036058672     1    12     3    13
 -0.0513897897     1    12     4     1
 -0.0065014726     1    12     4     2
 0.0021085801     1    12     4     4
 0.0011806037     1    12     4     6
 0.0007580365     1    12     4     9
 -0.0010285077     1    12     4    10
 0.0061685909     1    12     5     5
 0.0037888403     1    12     5    11
 0.0618707938     1    12     6     1
 0.0014194002     1    12     6     2
 -0.0014657020     1    12     6     4
 -0.0003311842     1    12     6     6
 -0.0002594204     1    12     6     9
 -0.0000076830     1    12     6    10
 -0.0011807748     1    12     7     3
 0.0002936645     1    12     7     7
 0.0003485483     1    12     7     8
 0.0008953650     1    12     7    13
 -0.0027120456     1    12     8     3
 0.0007312031     1    12     8     7
 0.0005885234     1    12     8     8
 0.0011875659     1    12     8    13
 -0.0247143752     1    12     9     1
 -0.0014847303     1    12     9     2
 0.0032440771     1    12     9     4
 0.0001290548     1    12     9     6
 0.0013799876     1    12     9     9
 0.0011910418     1    12     9    10
 -0.0437089821     1    12    10     1
 -0.0025987330     1    12    10     2
 0.0030972657     1    12    10     4
 0.0003737066     1    12    10     6
 0.0014769858     1    12    10     9
 0.0001662703     1    12    10    10
 0.0033406019     1    12    11     5
 0.0022258043     1    12    11    11
 -0.3780164997     1    12    12     1
 -0.0008684843     1    12    12     2
 0.0032215321     1    12    12     4
 -0.0001993570     1    12    12     6
 0.0006250977     1    12    12     9
 0.0007280152     1    12    12    10
 -0.0031349839     1    12    13     3
 0.0011652807     1    12    13     7
 0.0006680380     1    12    13     8
 0.0022920060     1    12    13    13
 -0.0004682155     1    12    14    14
 0.0055935221     1    13     2     3
 -0.0005759564     1    13     2     7
 0.0001863818     1    13     2     8
 0.2333619470     1    13     3     1
 0.0212138633     1    13     3     2
 -0.0039265086     1    13     3     4
 -0.0035829140     1    13     3     6
 -0.0008050339     1    13     3     9
 0.0010253094     1    13     3    10
 0.0036058672     1    13     3    12
 0.0014178095     1    13     4     3
 0.0001911899     1    13     4     7
 0.0025305514     1    13     4     8
 0.0023834260     1    13     5    14
 0.0016701264     1    13     6     3
 0.0006439176     1    13     6     7
 -0.0007388652     1    13     6     8
 -0.1473415447     1    13     7     1
 -0.0069523085     1    13     7     2
 0.0024613607     1    13     7     4
 0.0026041620     1    13     7     6
 0.0010086749     1    13     7     9
 -0.0013967404     1    13     7    10
 -0.0008953650     1    13     7    12
 -0.0792819966     1    13     8     1
 -0.0044144187     1    13     8     2
 0.0053384117     1    13     8     4
 0.0004869446     1    13     8     6
 0.0006430767     1    13     8     9
 -0.0010448730     1    13     8    10
 -0.0011875659     1    13     8    12
 0.0028764497     1    13     9     3
 -0.0003959515     1    13     9     7
 -0.0007805977     1    13     9     8
 -0.0032862700     1    13    10     3
 0.0001902124     1    13    10     7
 -0.0003979824     1    13    10     8
 -0.0005772634     1    13    11    14
 0.0004797859     1    13    12     3
 0.0002751890     1    13    12     7
 -0.0005180953     1    13    12     8
 -0.4773994550     1    13    13     1
 -0.0122957831     1    13    13     2
 0.0041980117     1    13    13     4
 0.0038182432     1    13    13     6
 0.0026563427     1    13    13     9
 -0.0031411621     1    13    13    10
 -0.0022920060     1    13    13    12
 0.0023454463     1    13    14     5
 -0.0005974801     1    13    14    11
 0.0037641353     1    14     3     5
 0.0023154005     1    14     3    11
 0.0033825069     1    14     5     3
 -0.0012462269     1    14     5     7
 -0.0008785922     1    14     5     8
 -0.0023834260     1    14     5    13
 0.0004227796     1    14     7     5
 0.0002461602     1    14     7    11
 -0.0003918382     1    14     8     5
 -0.0002582270     1    14     8    11
 -0.0008706925     1    14    11     3
 0.0003113554     1    14    11     7
 0.0002064076     1    14    11     8
 0.0005772634     1    14    11    13
 -0.0000229214     1    14    13     5
 -0.0000191248     1    14    13    11
 -0.3617745776     1    14    14     1
 0.0002877788     1    14    14     2
 0.0024103594     1    14    14     4
 -0.0005439779     1    14    14     6
 0.0007998302     1    14    14     9
 0.0011374393     1    14    14    10
 0.0004682155     1    14    14    12
 -0.9846230309     2     1     1     2
 0.0676456060     2     1     1     4
 0.1284253163     2     1     1     6
 0.0349985908     2     1     1     9
 -0.1106341088     2     1     1    10
 -0.0743150146     2     1     1    12
 0.0308707434     2     1     3     3
 -0.0081780886     2     1     3     7
 -0.0058699265     2     1     3     8
 -0.0144772207     2     1     3    13
 0.0069579775     2     1     4     2
 0.0359053885     2     1     4     4
 -0.0062281718     2     1     4     6
 0.0087894230     2     1     4     9
 0.0124978373     2     1     4    10
 0.0049892806     2     1     4    12
 0.0409238160     2     1     5     5
 0.0180433490     2     1     5    11
 -0.0013256653     2     1     6     2
 -0.0063803610     2     1     6     4
 0.0013700355     2     1     6     6
 -0.0015064744     2     1     6     9
 -0.0026954596     2     1     6    10
 -0.0010599244     2     1     6    12
 -0.0108973058     2     1     7     3
 0.0034529648     2     1     7     7
 0.0023832198     2     1     7     8
 0.0063457858     2     1     7    13
 -0.0087249450     2     1     8     3
 0.0027073600     2     1     8     7
 0.0019956505     2     1     8     8
 0.0045813435     2     1     8    13
 0.0030180817     2     1     9     2
 0.0118216218     2     1     9     4
 -0.0022067305     2     1     9     6
 0.0040055929     2     1     9     9
 0.0053737176     2     1     9    10
 0.0015980476     2     1     9    12
 0.0036379346     2     1    10     2
 0.0150721961     2     1    10     4
 -0.0032802831     2     1    10     6
 0.0047137709     2     1    10     9
 0.0064614152     2     1    10    10
 0.0023625526     2     1    10    12
 0.0243019728     2     1    11     5
 0.0137493847     2     1    11    11
 0.0015712634     2     1    12     2
 0.0065014726     2     1    12     4
 -0.0014194002     2     1    12     6
 0.0014847303     2     1    12     9
 0.0025987330     2     1    12    10
 0.0008684843     2     1    12    12
 -0.0212138633     2     1    13     3
 0.0069523085     2     1    13     7
 0.0044144187     2     1    13     8
 0.0122957831     2     1    13    13
 -0.0002877788     2     1    14    14
 0.9846230309     2     2     1     1
 -0.0069579775     2     2     1     4
 0.0013256653     2     2     1     6
 -0.0030180817     2     2     1     9
 -0.0036379346     2     2     1    10
 -0.0015712634     2     2     1    12
 0.5283050576     2     2     3     3
 -0.0616066914     2     2     3     7
 -0.0163182951     2     2     3     8
 -0.0834188129     2     2     3    13
 -0.0069579775     2     2     4     1
 0.5511840635     2     2     4     4
 -0.0299999721     2     2     4     6
 0.0678106305     2     2     4     9
 0.0625559764     2     2     4    10
 0.0116058136     2     2     4    12
 0.5788162826     2     2     5     5
 0.1156685695     2     2     5    11
 0.0013256653     2     2     6     1
 -0.0299999721     2     2     6     4
 0.2792280330     2     2     6     6
 -0.0082891302     2     2     6     9
 -0.0677776065     2     2     6    10
 -0.0355163478     2     2     6    12
 -0.0616066914     2     2     7     3
 0.2554892224     2     2     7     7
 0.0428574325     2     2     7     8
 0.0866829787     2     2     7    13
 -0.0163182951     2     2     8     3
 0.0428574325     2     2     8     7
 0.3577715352     2     2     8     8
 0.0440264671     2     2     8    13
 -0.0030180817     2     2     9     1
 0.0678106305     2     2     9     4
 -0.0082891302     2     2     9     6
 0.3319350819     2     2     9     9
 -0.0012188811     2     2     9    10
 0.0244107746     2     2     9    12
 -0.0036379346     2     2    10     1
 0.0625559764     2     2    10     4
 -0.0677776065     2     2    10     6
 -0.0012188811     2     2    10     9