&FCI NORB=  8,NELEC= 10,MS2=0,
 ORBSYM=1,1,1,1,1,1,1,1
 ISYM=1,
&END
 0.9856970524     1     1     2     2
 0.0672687161     1     1     2     4
 -0.0949977784     1     1     2     6
 -0.0474201296     1     1     2     8
 0.8731473217     1     1     3     3
 0.1020720546     1     1     3     7
 0.0672687161     1     1     4     2
 0.9505250273     1     1     4     4
 0.0488241346     1     1     4     6
 -0.1082948249     1     1     4     8
 0.9910681566     1     1     5     5
 -0.0949977784     1     1     6     2
 0.0488241346     1     1     6     4
 0.2794188917     1     1     6     6
 0.0146720721     1     1     6     8
 0.1020720546     1     1     7     3
 0.2408337480     1     1     7     7
 -0.0474201296     1     1     8     2
 -0.1082948249     1     1     8     4
 0.0146720721     1     1     8     6
 0.3084790895     1     1     8     8
 -0.9856970524     1     2     2     1
 -0.0069945904     1     2     2     4
 -0.0007081053     1     2     2     6
 0.0022792807     1     2     2     8
 0.0310639716     1     2     3     3
 0.0080105316     1     2     3     7
 -0.0672687161     1     2     4     1
 0.0357894852     1     2     4     4
 0.0051018206     1     2     4     6
 -0.0073001792     1     2     4     8
 0.0402810746     1     2     5     5
 0.0949977784     1     2     6     1
 0.0047239626     1     2     6     4
 0.0010597975     1     2     6     6
 -0.0011339712     1     2     6     8
 0.0057534184     1     2     7     3
 0.0021469730     1     2     7     7
 0.0474201296     1     2     8     1
 -0.0051644897     1     2     8     4
 -0.0007515404     1     2     8     6
 0.0021170281     1     2     8     8
 0.0016294475     1     3     2     7
 -0.8731473217     1     3     3     1
 -0.0310639716     1     3     3     2
 -0.0106288204     1     3     3     4
 0.0035871947     1     3     3     6
 0.0037011984     1     3     3     8
 -0.0006815281     1     3     4     7
 0.0015179501     1     3     6     7
 -0.1020720546     1     3     7     1
 -0.0057534184     1     3     7     2
 -0.0019937005     1     3     7     4
 0.0026294268     1     3     7     6
 0.0013916939     1     3     7     8
 0.0007655986     1     3     8     7
 -0.0672687161     1     4     2     1
 0.0069945904     1     4     2     2
 -0.0001117678     1     4     2     6
 -0.0015350628     1     4     2     8
 0.0106288204     1     4     3     3
 0.0014612538     1     4     3     7
 -0.9505250273     1     4     4     1
 -0.0357894852     1     4     4     2
 0.0067797247     1     4     4     6
 0.0025667933     1     4     4     8
 0.0135972613     1     4     5     5
 -0.0488241346     1     4     6     1
 -0.0047239626     1     4     6     2
 0.0025887618     1     4     6     6
 -0.0007446809     1     4     6     8
 0.0019937005     1     4     7     3
 0.0014597927     1     4     7     7
 0.1082948249     1     4     8     1
 0.0051644897     1     4     8     2
 -0.0024855785     1     4     8     6
 -0.0017959474     1     4     8     8
 -0.9910681566     1     5     5     1
 -0.0402810746     1     5     5     2
 -0.0135972613     1     5     5     4
 0.0063410089     1     5     5     6
 0.0072281322     1     5     5     8
 0.0949977784     1     6     2     1
 0.0007081053     1     6     2     2
 0.0001117678     1     6     2     4
 -0.0003941485     1     6     2     8
 -0.0035871947     1     6     3     3
 -0.0010788749     1     6     3     7
 -0.0488241346     1     6     4     1
 -0.0051018206     1     6     4     2
 -0.0067797247     1     6     4     4
 0.0016957452     1     6     4     8
 -0.0063410089     1     6     5     5
 -0.2794188917     1     6     6     1
 -0.0010597975     1     6     6     2
 -0.0025887618     1     6     6     4
 0.0004724371     1     6     6     8
 -0.0026294268     1     6     7     3
 -0.0006563943     1     6     7     7
 -0.0146720721     1     6     8     1
 0.0007515404     1     6     8     2
 0.0024855785     1     6     8     4
 -0.0009680785     1     6     8     8
 -0.0016294475     1     7     2     3
 -0.1020720546     1     7     3     1
 -0.0080105316     1     7     3     2
 -0.0014612538     1     7     3     4
 0.0010788749     1     7     3     6
 0.0006479213     1     7     3     8
 0.0006815281     1     7     4     3
 -0.0015179501     1     7     6     3
 -0.2408337480     1     7     7     1
 -0.0021469730     1     7     7     2
 -0.0014597927     1     7     7     4
 0.0006563943     1     7     7     6
 0.0005984893     1     7     7     8
 -0.0007655986     1     7     8     3
 0.0474201296     1     8     2     1
 -0.0022792807     1     8     2     2
 0.0015350628     1     8     2     4
 0.0003941485     1     8     2     6
 -0.0037011984     1     8     3     3
 -0.0006479213     1     8     3     7
 0.1082948249     1     8     4     1
 0.0073001792     1     8     4     2
 -0.0025667933     1     8     4     4
 -0.0016957452     1     8     4     6
 -0.0072281322     1     8     5     5
 -0.0146720721     1     8     6     1
 0.0011339712     1     8     6     2
 0.0007446809     1     8     6     4
 -0.0004724371     1     8     6     6
 -0.0013916939     1     8     7     3
 -0.0005984893     1     8     7     7
 -0.3084790895     1     8     8     1
 -0.0021170281     1     8     8     2
 0.0017959474     1     8     8     4
 0.0009680785     1     8     8     6
 -0.9856970524     2     1     1     2
 -0.0672687161     2     1     1     4
 0.0949977784     2     1     1     6
 0.0474201296     2     1     1     8
 0.0310639716     2     1     3     3
 0.0057534184     2     1     3     7
 -0.0069945904     2     1     4     2
 0.0357894852     2     1     4     4
 0.0047239626     2     1     4     6
 -0.0051644897     2     1     4     8
 0.0402810746     2     1     5     5
 -0.0007081053     2     1     6     2
 0.0051018206     2     1     6     4
 0.0010597975     2     1     6     6
 -0.0007515404     2     1     6     8
 0.0080105316     2     1     7     3
 0.0021469730     2     1     7     7
 0.0022792807     2     1     8     2
 -0.0073001792     2     1     8     4
 -0.0011339712     2     1     8     6
 0.0021170281     2     1     8     8
 0.9856970524     2     2     1     1
 0.0069945904     2     2     1     4
 0.0007081053     2     2     1     6
 -0.0022792807     2     2     1     8
 0.5293627661     2     2     3     3
 0.0440186297     2     2     3     7
 0.0069945904     2     2     4     1
 0.5507047565     2     2     4     4
 0.0210651131     2     2     4     6
 -0.0475830468     2     2     4     8
 0.5751297802     2     2     5     5
 0.0007081053     2     2     6     1
 0.0210651131     2     2     6     4
 0.2554952040     2     2     6     6
 0.0071612642     2     2     6     8
 0.0440186297     2     2     7     3
 0.2242194533     2     2     7     7
 -0.0022792807     2     2     8     1
 -0.0475830468     2     2     8     4
 0.0071612642     2     2     8     6
 0.2740245128     2     2     8     8
 -0.0016294475     2     3     1     7
 -0.0310639716     2     3     3     1
 -0.5293627661     2     3     3     2
 -0.0020112606     2     3     3     4
 0.0449134664     2     3     3     6
 0.0228378390     2     3     3     8
 0.0052953105     2     3     4     7
 -0.0246409407     2     3     6     7
 -0.0080105316     2     3     7     1
 -0.0440186297     2     3     7     2
 0.0014477762     2     3     7     4
 -0.0179069363     2     3     7     6
 -0.0032688684     2     3     7     8
 -0.0070069915     2     3     8     7
 0.0672687161     2     4     1     1
 -0.0069945904     2     4     1     2
 0.0001117678     2     4     1     6
 0.0015350628     2     4     1     8
 0.0020112606     2     4     3     3
 0.0041227334     2     4     3     7
 -0.0357894852     2     4     4     1
 -0.5507047565     2     4     4     2
 0.0445041449     2     4     4     6
 0.0160577289     2     4     4     8
 0.0042940380     2     4     5     5
 -0.0051018206     2     4     6     1
 -0.0210651131     2     4     6     2
 -0.0100087809     2     4     6     6
 0.0156878586     2     4     6     8
 -0.0014477762     2     4     7     3
 -0.0092110334     2     4     7     7
 0.0073001792     2     4     8     1
 0.0475830468     2     4     8     2
 0.0073965328     2     4     8     6
 0.0147685139     2     4     8     8
 -0.0402810746     2     5     5     1
 -0.5751297802     2     5     5     2
 -0.0042940380     2     5     5     4
 0.0451277711     2     5     5     6
 0.0112604520     2     5     5     8
 -0.0949977784     2     6     1     1
 -0.0007081053     2     6     1     2
 -0.0001117678     2     6     1     4
 0.0003941485     2     6     1     8
 -0.0449134664     2     6     3     3
 -0.0063660288     2     6     3     7
 -0.0047239626     2     6     4     1
 -0.0210651131     2     6     4     2
 -0.0445041449     2     6     4     4
 0.0076916231     2     6     4     8
 -0.0451277711     2     6     5     5
 -0.0010597975     2     6     6     1
 -0.2554952040     2     6     6     2
 0.0100087809     2     6     6     4
 0.0009699205     2     6     6     8
 0.0179069363     2     6     7     3
 -0.0031268779     2     6     7     7
 0.0011339712     2     6     8     1
 -0.0071612642     2     6     8     2
 -0.0073965328     2     6     8     4
 -0.0063278385     2     6     8     8
 0.0016294475     2     7     1     3
 -0.0057534184     2     7     3     1
 -0.0440186297     2     7     3     2
 -0.0041227334     2     7     3     4
 0.0063660288     2     7     3     6
 0.0033343561     2     7     3     8
 -0.0052953105     2     7     4     3
 0.0246409407     2     7     6     3
 -0.0021469730     2     7     7     1
 -0.2242194533     2     7     7     2
 0.0092110334     2     7     7     4
 0.0031268779     2     7     7     6
 -0.0001063603     2     7     7     8
 0.0070069915     2     7     8     3
 -0.0474201296     2     8     1     1
 0.0022792807     2     8     1     2
 -0.0015350628     2     8     1     4
 -0.0003941485     2     8     1     6
 -0.0228378390     2     8     3     3
 -0.0033343561     2     8     3     7
 0.0051644897     2     8     4     1
 0.0475830468     2     8     4     2
 -0.0160577289     2     8     4     4
 -0.0076916231     2     8     4     6
 -0.0112604520     2     8     5     5
 0.0007515404     2     8     6     1
 -0.0071612642     2     8     6     2
 -0.0156878586     2     8     6     4
 -0.0009699205     2     8     6     6
 0.0032688684     2     8     7     3
 0.0001063603     2     8     7     7
 -0.0021170281     2     8     8     1
 -0.2740245128     2     8     8     2
 -0.0147685139     2     8     8     4
 0.0063278385     2     8     8     6
 -0.8731473217     3     1     1     3
 -0.1020720546     3     1     1     7
 -0.0310639716     3     1     2     3
 -0.0057534184     3     1     2     7
 -0.0106288204     3     1     4     3
 -0.0019937005     3     1     4     7
 0.0035871947     3     1     6     3
 0.0026294268     3     1     6     7
 0.0016294475     3     1     7     2
 -0.0006815281     3     1     7     4
 0.0015179501     3     1     7     6
 0.0007655986     3     1     7     8
 0.0037011984     3     1     8     3
 0.0013916939     3     1     8     7
 -0.0310639716     3     2     1     3
 -0.0080105316     3     2     1     7
 -0.5293627661     3     2     2     3
 -0.0440186297     3     2     2     7
 -0.0020112606     3     2     4     3
 0.0014477762     3     2     4     7
 0.0449134664     3     2     6     3
 -0.0179069363     3     2     6     7
 -0.0016294475     3     2     7     1
 0.0052953105     3     2     7     4
 -0.0246409407     3     2     7     6
 -0.0070069915     3     2     7     8
 0.0228378390     3     2     8     3
 -0.0032688684     3     2     8     7
 0.8731473217     3     3     1     1
 0.0310639716     3     3     1     2
 0.0106288204     3     3     1     4
 -0.0035871947     3     3     1     6
 -0.0037011984     3     3     1     8
 0.0310639716     3     3     2     1
 0.5293627661     3     3     2     2
 0.0020112606     3     3     2     4
 -0.0449134664     3     3     2     6
 -0.0228378390     3     3     2     8
 0.0106288204     3     3     4     1
 0.0020112606     3     3     4     2
 0.5612218380     3     3     4     4
 0.0241473306     3     3     4     6
 -0.0491227789     3     3     4     8
 0.5817865161     3     3     5     5
 -0.0035871947     3     3     6     1
 -0.0449134664     3     3     6     2
 0.0241473306     3     3     6     4
 0.2579194670     3     3     6     6
 0.0081437177     3     3     6     8
 0.2194436980     3     3     7     7
 -0.0037011984     3     3     8     1
 -0.0228378390     3     3     8     2
 -0.0491227789     3     3     8     4
 0.0081437177     3     3     8     6
 0.2687248380     3     3     8     8
 -0.0106288204     3     4     1     3
 -0.0014612538     3     4     1     7
 -0.0020112606     3     4     2     3
 -0.0041227334     3     4     2     7
 -0.5612218380     3     4     4     3
 -0.0530674219     3     4     4     7
 -0.0241473306     3     4     6     3
 0.0017267028     3     4     6     7
 0.0006815281     3     4     7     1
 -0.0052953105     3     4     7     2
 0.0059853031     3     4     7     6
 -0.0018679273     3     4     7     8
 0.0491227789     3     4     8     3
 0.0076887260     3     4     8     7
 -0.5817865161     3     5     5     3
 -0.0553709118     3     5     5     7
 0.0035871947     3     6     1     3
 0.0010788749     3     6     1     7
 0.0449134664     3     6     2     3
 0.0063660288     3     6     2     7
 -0.0241473306     3     6     4     3
 -0.0041608346     3     6     4     7
 -0.2579194670     3     6     6     3
 -0.0144822891     3     6     6     7
 -0.0015179501     3     6     7     1
 0.0246409407     3     6     7     2
 -0.0059853031     3     6     7     4
 0.0059862649     3     6     7     8
 -0.0081437177     3     6     8     3
 -0.0037824187     3     6     8     7
 0.1020720546     3     7     1     1
 0.0080105316     3     7     1     2
 0.0014612538     3     7     1     4
 -0.0010788749     3     7     1     6
 -0.0006479213     3     7     1     8
 0.0057534184     3     7     2     1
 0.0440186297     3     7     2     2
 0.0041227334     3     7     2     4
 -0.0063660288     3     7     2     6
 -0.0033343561     3     7     2     8
 0.0019937005     3     7     4     1
 -0.0014477762     3     7     4     2
 0.0530674219     3     7     4     4
 0.0041608346     3     7     4     6
 -0.0091679516     3     7     4     8
 0.0553709118     3     7     5     5
 -0.0026294268     3     7     6     1
 0.0179069363     3     7     6     2
 -0.0017267028     3     7     6     4
 0.0144822891     3     7     6     6
 0.0097444158     3     7     6     8
 -0.2194436980     3     7     7     3
 -0.0013916939     3     7     8     1
 0.0032688684     3     7     8     2
 -0.0076887260     3     7     8     4
 0.0037824187     3     7     8     6
 0.0133901803     3     7     8     8
 0.0037011984     3     8     1     3
 0.0006479213     3     8     1     7
 0.0228378390     3     8     2     3
 0.0033343561     3     8     2     7
 0.0491227789     3     8     4     3
 0.0091679516     3     8     4     7
 -0.0081437177     3     8     6     3
 -0.0097444158     3     8     6     7
 -0.0007655986     3     8     7     1
 0.0070069915     3     8     7     2
 0.0018679273     3     8     7     4
 -0.0059862649     3     8     7     6
 -0.2687248380     3     8     8     3
 -0.0133901803     3     8     8     7
 -0.0672687161     4     1     1     2
 -0.9505250273     4     1     1     4
 -0.0488241346     4     1     1     6
 0.1082948249     4     1     1     8
 0.0069945904     4     1     2     2
 -0.0357894852     4     1     2     4
 -0.0047239626     4     1     2     6
 0.0051644897     4     1     2     8
 0.0106288204     4     1     3     3
 0.0019937005     4     1     3     7
 0.0135972613     4     1     5     5
 -0.0001117678     4     1     6     2
 0.0067797247     4     1     6     4
 0.0025887618     4     1     6     6
 -0.0024855785     4     1     6     8
 0.0014612538     4     1     7     3
 0.0014597927     4     1     7     7
 -0.0015350628     4     1     8     2
 0.0025667933     4     1     8     4
 -0.0007446809     4     1     8     6
 -0.0017959474     4     1     8     8
 0.0672687161     4     2     1     1
 -0.0357894852     4     2     1     4
 -0.0051018206     4     2     1     6
 0.0073001792     4     2     1     8
 -0.0069945904     4     2     2     1
 -0.5507047565     4     2     2     4
 -0.0210651131     4     2     2     6
 0.0475830468     4     2     2     8
 0.0020112606     4     2     3     3
 -0.0014477762     4     2     3     7
 0.0042940380     4     2     5     5
 0.0001117678     4     2     6     1
 0.0445041449     4     2     6     4
 -0.0100087809     4     2     6     6
 0.0073965328     4     2     6     8
 0.0041227334     4     2     7     3
 -0.0092110334     4     2     7     7
 0.0015350628     4     2     8     1
 0.0160577289     4     2     8     4
 0.0156878586     4     2     8     6
 0.0147685139     4     2     8     8
 0.0006815281     4     3     1     7
 -0.0052953105     4     3     2     7
 -0.0106288204     4     3     3     1
 -0.0020112606     4     3     3     2
 -0.5612218380     4     3     3     4
 -0.0241473306     4     3     3     6
 0.0491227789     4     3     3     8
 0.0059853031     4     3     6     7
 -0.0014612538     4     3     7     1
 -0.0041227334     4     3     7     2
 -0.0530674219     4     3     7     4
 0.0017267028     4     3     7     6
 0.0076887260     4     3     7     8
 -0.0018679273     4     3     8     7
 0.9505250273     4     4     1     1
 0.0357894852     4     4     1     2
 -0.0067797247     4     4     1     6
 -0.0025667933     4     4     1     8
 0.0357894852     4     4     2     1
 0.5507047565     4     4     2     2
 -0.0445041449     4     4     2     6
 -0.0160577289     4     4     2     8
 0.5612218380     4     4     3     3
 0.0530674219     4     4     3     7
 0.5997516872     4     4     5     5
 -0.0067797247     4     4     6     1
 -0.0445041449     4     4     6     2
 0.2469982750     4     4     6     6
 0.0193345036     4     4     6     8
 0.0530674219     4     4     7     3
 0.2174660830     4     4     7     7
 -0.0025667933     4     4     8     1
 -0.0160577289     4     4     8     2
 0.0193345036     4     4     8     6
 0.2769734434     4     4     8     8
 -0.0135972613     4     5     5     1
 -0.0042940380     4     5     5     2
 -0.5997516872     4     5     5     4
 -0.0279512985     4     5     5     6
 0.0544982925     4     5     5     8
 0.0488241346     4     6     1     1
 0.0051018206     4     6     1     2
 0.0067797247     4     6     1     4
 -0.0016957452     4     6     1     8
 0.0047239626     4     6     2     1
 0.0210651131     4     6     2     2
 0.0445041449     4     6     2     4
 -0.0076916231     4     6     2     8
 0.0241473306     4     6     3     3
 0.0041608346     4     6     3     7
 0.0279512985     4     6     5     5
 -0.0025887618     4     6     6     1
 0.0100087809     4     6     6     2
 -0.2469982750     4     6     6     4
 0.0145709396     4     6     6     8
 -0.0017267028     4     6     7     3
 0.0023779341     4     6     7     7
 0.0007446809     4     6     8     1
 -0.0156878586     4     6     8     2
 -0.0193345036     4     6     8     4
 0.0082736717     4     6     8     8
 -0.0006815281     4     7     1     3
 0.0052953105     4     7     2     3
 -0.0019937005     4     7     3     1
 0.0014477762     4     7     3     2
 -0.0530674219     4     7     3     4
 -0.0041608346     4     7     3     6
 0.0091679516     4     7     3     8
 -0.0059853031     4     7     6     3
 -0.0014597927     4     7     7     1
 0.0092110334     4     7     7     2
 -0.2174660830     4     7     7     4
 -0.0023779341     4     7     7     6
 0.0072276388     4     7     7     8
 0.0018679273     4     7     8     3
 -0.1082948249     4     8     1     1
 -0.0073001792     4     8     1     2
 0.0025667933     4     8     1     4
 0.0016957452     4     8     1     6
 -0.0051644897     4     8     2     1
 -0.0475830468     4     8     2     2
 0.0160577289     4     8     2     4
 0.0076916231     4     8     2     6
 -0.0491227789     4     8     3     3
 -0.0091679516     4     8     3     7
 -0.0544982925     4     8     5     5
 0.0024855785     4     8     6     1
 -0.0073965328     4     8     6     2
 -0.0193345036     4     8     6     4
 -0.0145709396     4     8     6     6
 -0.0076887260     4     8     7     3
 -0.0072276388     4     8     7     7
 0.0017959474     4     8     8     1
 -0.0147685139     4     8     8     2
 -0.2769734434     4     8     8     4
 -0.0082736717     4     8     8     6
 -0.9910681566     5     1     1     5
 -0.0402810746     5     1     2     5
 -0.0135972613     5     1     4     5
 0.0063410089     5     1     6     5
 0.0072281322     5     1     8     5
 -0.0402810746     5     2     1     5
 -0.5751297802     5     2     2     5
 -0.0042940380     5     2     4     5
 0.0451277711     5     2     6     5
 0.0112604520     5     2     8     5
 -0.5817865161     5     3     3     5
 -0.0553709118     5     3     7     5
 -0.0135972613     5     4     1     5
 -0.0042940380     5     4     2     5
 -0.5997516872     5     4     4     5
 -0.0279512985     5     4     6     5
 0.0544982925     5     4     8     5
 0.9910681566     5     5     1     1
 0.0402810746     5     5     1     2
 0.0135972613     5     5     1     4
 -0.0063410089     5     5     1     6
 -0.0072281322     5     5     1     8
 0.0402810746     5     5     2     1
 0.5751297802     5     5     2     2
 0.0042940380     5     5     2     4
 -0.0451277711     5     5     2     6
 -0.0112604520     5     5     2     8
 0.5817865161     5     5     3     3
 0.0553709118     5     5     3     7
 0.0135972613     5     5     4     1
 0.0042940380     5     5     4     2
 0.5997516872     5     5     4     4
 0.0279512985     5     5     4     6
 -0.0544982925     5     5     4     8
 -0.0063410089     5     5     6     1
 -0.0451277711     5     5     6     2
 0.0279512985     5     5     6     4
 0.2532230623     5     5     6     6
 0.0109698212     5     5     6     8
 0.0553709118     5     5     7     3
 0.2198234977     5     5     7     7
 -0.0072281322     5     5     8     1
 -0.0112604520     5     5     8     2
 -0.0544982925     5     5     8     4
 0.0109698212     5     5     8     6
 0.2764827949     5     5     8     8
 0.0063410089     5     6     1     5
 0.0451277711     5     6     2     5
 -0.0279512985     5     6     4     5
 -0.2532230623     5     6     6     5
 -0.0109698212     5     6     8     5
 -0.0553709118     5     7     3     5
 -0.2198234977     5     7     7     5
 0.0072281322     5     8     1     5
 0.0112604520     5     8     2     5
 0.0544982925     5     8     4     5
 -0.0109698212     5     8     6     5
 -0.2764827949     5     8     8     5
 0.0949977784     6     1     1     2
 -0.0488241346     6     1     1     4
 -0.2794188917     6     1     1     6
 -0.0146720721     6     1     1     8
 0.0007081053     6     1     2     2
 -0.0051018206     6     1     2     4
 -0.0010597975     6     1     2     6
 0.0007515404     6     1     2     8
 -0.0035871947     6     1     3     3
 -0.0026294268     6     1     3     7
 0.0001117678     6     1     4     2
 -0.0067797247     6     1     4     4
 -0.0025887618     6     1     4     6
 0.0024855785     6     1     4     8
 -0.0063410089     6     1     5     5
 -0.0010788749     6     1     7     3
 -0.0006563943     6     1     7     7
 -0.0003941485     6     1     8     2
 0.0016957452     6     1     8     4
 0.0004724371     6     1     8     6
 -0.0009680785     6     1     8     8
 -0.0949977784     6     2     1     1
 -0.0047239626     6     2     1     4
 -0.0010597975     6     2     1     6
 0.0011339712     6     2     1     8
 -0.0007081053     6     2     2     1
 -0.0210651131     6     2     2     4
 -0.2554952040     6     2     2     6
 -0.0071612642     6     2     2     8
 -0.0449134664     6     2     3     3
 0.0179069363     6     2     3     7
 -0.0001117678     6     2     4     1
 -0.0445041449     6     2     4     4
 0.0100087809     6     2     4     6
 -0.0073965328     6     2     4     8
 -0.0451277711     6     2     5     5
 -0.0063660288     6     2     7     3
 -0.0031268779     6     2     7     7
 0.0003941485     6     2     8     1
 0.0076916231     6     2     8     4
 0.0009699205     6     2     8     6
 -0.0063278385     6     2     8     8
 -0.0015179501     6     3     1     7
 0.0246409407     6     3     2     7
 0.0035871947     6     3     3     1
 0.0449134664     6     3     3     2
 -0.0241473306     6     3     3     4
 -0.2579194670     6     3     3     6
 -0.0081437177     6     3     3     8
 -0.0059853031     6     3     4     7
 0.0010788749     6     3     7     1
 0.0063660288     6     3     7     2
 -0.0041608346     6     3     7     4
 -0.0144822891     6     3     7     6
 -0.0037824187     6     3     7     8
 0.0059862649     6     3     8     7
 0.0488241346     6     4     1     1
 0.0047239626     6     4     1     2
 -0.0025887618     6     4     1     6
 0.0007446809     6     4     1     8
 0.0051018206     6     4     2     1
 0.0210651131     6     4     2     2
 0.0100087809     6     4     2     6
 -0.0156878586     6     4     2     8
 0.0241473306     6     4     3     3
 -0.0017267028     6     4     3     7
 0.0067797247     6     4     4     1
 0.0445041449     6     4     4     2
 -0.2469982750     6     4     4     6
 -0.0193345036     6     4     4     8
 0.0279512985     6     4     5     5
 0.0041608346     6     4     7     3
 0.0023779341     6     4     7     7
 -0.0016957452     6     4     8     1
 -0.0076916231     6     4     8     2
 0.0145709396     6     4     8     6
 0.0082736717     6     4     8     8
 0.0063410089     6     5     5     1
 0.0451277711     6     5     5     2
 -0.0279512985     6     5     5     4
 -0.2532230623     6     5     5     6
 -0.0109698212     6     5     5     8
 0.2794188917     6     6     1     1
 0.0010597975     6     6     1     2
 0.0025887618     6     6     1     4
 -0.0004724371     6     6     1     8
 0.0010597975     6     6     2     1
 0.2554952040     6     6     2     2
 -0.0100087809     6     6     2     4
 -0.0009699205     6     6     2     8
 0.2579194670     6     6     3     3
 0.0144822891     6     6     3     7
 0.0025887618     6     6     4     1
 -0.0100087809     6     6     4     2
 0.2469982750     6     6     4     4
 -0.0145709396     6     6     4     8
 0.2532230623     6     6     5     5
 0.0144822891     6     6     7     3
 0.1530656371     6     6     7     7
 -0.0004724371     6     6     8     1
 -0.0009699205     6     6     8     2
 -0.0145709396     6     6     8     4
 0.1730617542     6     6     8     8
 0.0015179501     6     7     1     3
 -0.0246409407     6     7     2     3
 0.0026294268     6     7     3     1
 -0.0179069363     6     7     3     2
 0.0017267028     6     7     3     4
 -0.0144822891     6     7     3     6
 -0.0097444158     6     7     3     8
 0.0059853031     6     7     4     3
 0.0006563943     6     7     7     1
 0.0031268779     6     7     7     2
 -0.0023779341     6     7     7     4
 -0.1530656371     6     7     7     6
 0.0076393318     6     7     7     8
 -0.0059862649     6     7     8     3
 0.0146720721     6     8     1     1
 -0.0011339712     6     8     1     2
 -0.0007446809     6     8     1     4
 0.0004724371     6     8     1     6
 -0.0007515404     6     8     2     1
 0.0071612642     6     8     2     2
 0.0156878586     6     8     2     4
 0.0009699205     6     8     2     6
 0.0081437177     6     8     3     3
 0.0097444158     6     8     3     7
 -0.0024855785     6     8     4     1
 0.0073965328     6     8     4     2
 0.0193345036     6     8     4     4
 0.0145709396     6     8     4     6
 0.0109698212     6     8     5     5
 0.0037824187     6     8     7     3
 -0.0076393318     6     8     7     7
 0.0009680785     6     8     8     1
 0.0063278385     6     8     8     2
 -0.0082736717     6     8     8     4
 -0.1730617542     6     8     8     6
 -0.1020720546     7     1     1     3
 -0.2408337480     7     1     1     7
 -0.0080105316     7     1     2     3
 -0.0021469730     7     1     2     7
 -0.0016294475     7     1     3     2
 0.0006815281     7     1     3     4
 -0.0015179501     7     1     3     6
 -0.0007655986     7     1     3     8
 -0.0014612538     7     1     4     3
 -0.0014597927     7     1     4     7
 0.0010788749     7     1     6     3
 0.0006563943     7     1     6     7
 0.0006479213     7     1     8     3
 0.0005984893     7     1     8     7
 -0.0057534184     7     2     1     3
 -0.0021469730     7     2     1     7
 -0.0440186297     7     2     2     3
 -0.2242194533     7     2     2     7
 0.0016294475     7     2     3     1
 -0.0052953105     7     2     3     4
 0.0246409407     7     2     3     6
 0.0070069915     7     2     3     8
 -0.0041227334     7     2     4     3
 0.0092110334     7     2     4     7
 0.0063660288     7     2     6     3
 0.0031268779     7     2     6     7
 0.0033343561     7     2     8     3
 -0.0001063603     7     2     8     7
 0.1020720546     7     3     1     1
 0.0057534184     7     3     1     2
 0.0019937005     7     3     1     4
 -0.0026294268     7     3     1     6
 -0.0013916939     7     3     1     8
 0.0080105316     7     3     2     1
 0.0440186297     7     3     2     2
 -0.0014477762     7     3     2     4
 0.0179069363     7     3     2     6
 0.0032688684     7     3     2     8
 -0.2194436980     7     3     3     7
 0.0014612538     7     3     4     1
 0.0041227334     7     3     4     2