&FCI NORB= 14,NELEC= 10,MS2=0,
 ORBSYM=1,1,1,1,1,1,1,1,1,1,1,1,1,1
 ISYM=1,
&END
 0.9839923860     1     1     2     2
 0.0689311669     1     1     2     4
 -0.1483817109     1     1     2     6
 -0.1183906862     1     1     2     9
 0.0400143848     1     1     2    10
 -0.0693138127     1     1     2    12
 0.8670437148     1     1     3     3
 0.1791175620     1     1     3     7
 0.1071719873     1     1     3     8
 0.2529018863     1     1     3    13
 0.0689311669     1     1     4     2
 0.9533653987     1     1     4     4
 0.0808057376     1     1     4     6
 0.0638690812     1     1     4     9
 -0.2687718976     1     1     4    10
 0.0402715111     1     1     4    12
 1.0035400884     1     1     5     5
 -0.3465046051     1     1     5    11
 -0.1483817109     1     1     6     2
 0.0808057376     1     1     6     4
 0.3477853257     1     1     6     6
 0.1071897885     1     1     6     9
 -0.0898943055     1     1     6    10
 0.0571427700     1     1     6    12
 0.1791175620     1     1     7     3
 0.3252900879     1     1     7     7
 0.0988016995     1     1     7     8
 0.1675838463     1     1     7    13
 0.1071719873     1     1     8     3
 0.0988016995     1     1     8     7
 0.4543102881     1     1     8     8
 0.0846819877     1     1     8    13
 -0.1183906862     1     1     9     2
 0.0638690812     1     1     9     4
 0.1071897885     1     1     9     6
 0.4543837009     1     1     9     9
 -0.0560501673     1     1     9    10
 0.0197633956     1     1     9    12
 0.0400143848     1     1    10     2
 -0.2687718976     1     1    10     4
 -0.0898943055     1     1    10     6
 -0.0560501673     1     1    10     9
 0.5357654051     1     1    10    10
 -0.0456889701     1     1    10    12
 -0.3465046051     1     1    11     5
 0.6615316680     1     1    11    11
 -0.0693138127     1     1    12     2
 0.0402715111     1     1    12     4
 0.0571427700     1     1    12     6
 0.0197633956     1     1    12     9
 -0.0456889701     1     1    12    10
 0.4314101945     1     1    12    12
 0.2529018863     1     1    13     3
 0.1675838463     1     1    13     7
 0.0846819877     1     1    13     8
 0.5461615291     1     1    13    13
 0.4173095089     1     1    14    14
 -0.9839923860     1     2     2     1
 -0.0069319351     1     2     2     4
 -0.0016346150     1     2     2     6
 -0.0019706074     1     2     2     9
 0.0056972410     1     2     2    10
 -0.0014962013     1     2     2    12
 0.0306614768     1     2     3     3
 0.0132190911     1     2     3     7
 0.0117358723     1     2     3     8
 0.0240541025     1     2     3    13
 -0.0689311669     1     2     4     1
 0.0359380378     1     2     4     4
 0.0073837296     1     2     4     6
 0.0080104198     1     2     4     9
 -0.0226540816     1     2     4    10
 0.0059848602     1     2     4    12
 0.0411699348     1     2     5     5
 -0.0293458365     1     2     5    11
 0.1483817109     1     2     6     1
 0.0073805393     1     2     6     4
 0.0017672196     1     2     6     6
 0.0021510193     1     2     6     9
 -0.0052367431     1     2     6    10
 0.0014619588     1     2     6    12
 0.0099874393     1     2     7     3
 0.0049196640     1     2     7     7
 0.0043421880     1     2     7     8
 0.0092316108     1     2     7    13
 0.0079820408     1     2     8     3
 0.0038553811     1     2     8     7
 0.0033850339     1     2     8     8
 0.0066334729     1     2     8    13
 0.1183906862     1     2     9     1
 0.0071316336     1     2     9     4
 0.0018826233     1     2     9     6
 0.0016775232     1     2     9     9
 -0.0053323833     1     2     9    10
 0.0014208936     1     2     9    12
 -0.0400143848     1     2    10     1
 -0.0173168712     1     2    10     4
 -0.0037265005     1     2    10     6
 -0.0043837192     1     2    10     9
 0.0134830249     1     2    10    10
 -0.0026995059     1     2    10    12
 -0.0220115729     1     2    11     5
 0.0191720784     1     2    11    11
 0.0693138127     1     2    12     1
 0.0043855384     1     2    12     4
 0.0010034490     1     2    12     6
 0.0011188172     1     2    12     9
 -0.0025514393     1     2    12    10
 0.0006282226     1     2    12    12
 0.0159364052     1     2    13     3
 0.0081568747     1     2    13     7
 0.0066145921     1     2    13     8
 0.0151013482     1     2    13    13
 -0.0003551314     1     2    14    14
 0.0025815855     1     3     2     7
 0.0032348515     1     3     2     8
 0.0070399019     1     3     2    13
 -0.8670437148     1     3     3     1
 -0.0306614768     1     3     3     2
 -0.0104751946     1     3     3     4
 0.0045024891     1     3     3     6
 0.0001623837     1     3     3     9
 0.0025272612     1     3     3    10
 0.0049868056     1     3     3    12
 -0.0013214477     1     3     4     7
 -0.0050475124     1     3     4     8
 -0.0002919731     1     3     4    13
 0.0043964709     1     3     5    14
 0.0021194089     1     3     6     7
 -0.0004271217     1     3     6     8
 0.0019272166     1     3     6    13
 -0.1791175620     1     3     7     1
 -0.0099874393     1     3     7     2
 -0.0035619647     1     3     7     4
 0.0045730936     1     3     7     6
 0.0025815816     1     3     7     9
 -0.0001624706     1     3     7    10
 0.0016834186     1     3     7    12
 -0.1071719873     1     3     8     1
 -0.0079820408     1     3     8     2
 -0.0026289100     1     3     8     4
 0.0027767600     1     3     8     6
 0.0046680902     1     3     8     9
 -0.0038672579     1     3     8    10
 0.0035121726     1     3     8    12
 0.0019960018     1     3     9     7
 0.0029163129     1     3     9     8
 0.0049959688     1     3     9    13
 0.0002020316     1     3    10     7
 -0.0005251996     1     3    10     8
 0.0012575207     1     3    10    13
 0.0007815002     1     3    11    14
 -0.0008443639     1     3    12     7
 0.0006281869     1     3    12     8
 -0.0013252483     1     3    12    13
 -0.2529018863     1     3    13     1
 -0.0159364052     1     3    13     2
 -0.0055801994     1     3    13     4
 0.0062032403     1     3    13     6
 0.0058454193     1     3    13     9
 0.0013943959     1     3    13    10
 0.0031284103     1     3    13    12
 -0.0005163019     1     3    14     5
 0.0045315190     1     3    14    11
 -0.0689311669     1     4     2     1
 0.0069319351     1     4     2     2
 -0.0004635880     1     4     2     6
 0.0004348284     1     4     2     9
 -0.0041883050     1     4     2    10
 0.0013248028     1     4     2    12
 0.0104751946     1     4     3     3
 0.0023870901     1     4     3     7
 -0.0023801609     1     4     3     8
 0.0056328193     1     4     3    13
 -0.9533653987     1     4     4     1
 -0.0359380378     1     4     4     2
 0.0092934803     1     4     4     6
 0.0097271233     1     4     4     9
 -0.0067149200     1     4     4    10
 0.0003436071     1     4     4    12
 0.0138082892     1     4     5     5
 -0.0093708039     1     4     5    11
 -0.0808057376     1     4     6     1
 -0.0073805393     1     4     6     2
 0.0041533326     1     4     6     6
 0.0029221874     1     4     6     9
 -0.0038062692     1     4     6    10
 0.0011429558     1     4     6    12
 0.0035619647     1     4     7     3
 0.0027793152     1     4     7     7
 0.0011787286     1     4     7     8
 0.0035801334     1     4     7    13
 0.0026289100     1     4     8     3
 0.0029308029     1     4     8     7
 0.0028577155     1     4     8     8
 0.0072498613     1     4     8    13
 -0.0638690812     1     4     9     1
 -0.0071316336     1     4     9     2
 0.0030127624     1     4     9     6
 0.0060486969     1     4     9     9
 -0.0020116284     1     4     9    10
 0.0007483099     1     4     9    12
 0.2687718976     1     4    10     1
 0.0173168712     1     4    10     2
 -0.0083542907     1     4    10     6
 -0.0067342887     1     4    10     9
 0.0029114523     1     4    10    10
 -0.0047830891     1     4    10    12
 -0.0078014279     1     4    11     5
 0.0065670331     1     4    11    11
 -0.0402715111     1     4    12     1
 -0.0043855384     1     4    12     2
 0.0026914220     1     4    12     6
 0.0023214098     1     4    12     9
 -0.0058114792     1     4    12    10
 0.0034693402     1     4    12    12
 0.0055801994     1     4    13     3
 0.0026498005     1     4    13     7
 0.0032806802     1     4    13     8
 0.0039879709     1     4    13    13
 0.0034965029     1     4    14    14
 -0.0059187013     1     5     2    11
 0.0049669782     1     5     3    14
 -0.0011388781     1     5     4    11
 -1.0035400884     1     5     5     1
 -0.0411699348     1     5     5     2
 -0.0138082892     1     5     5     4
 0.0089532300     1     5     5     6
 0.0119476002     1     5     5     9
 0.0029512400     1     5     5    10
 0.0065940920     1     5     5    12
 -0.0023259241     1     5     6    11
 0.0000357429     1     5     7    14
 0.0004831296     1     5     8    14
 0.0023620141     1     5     9    11
 0.0016449926     1     5    10    11
 0.3465046051     1     5    11     1
 0.0220115729     1     5    11     2
 0.0078014279     1     5    11     4
 -0.0089871600     1     5    11     6
 -0.0065726563     1     5    11     9
 -0.0000655377     1     5    11    10
 -0.0039822596     1     5    11    12
 0.0009439671     1     5    12    11
 0.0003188165     1     5    13    14
 0.0005163019     1     5    14     3
 -0.0018923536     1     5    14     7
 -0.0010879861     1     5    14     8
 -0.0031878291     1     5    14    13
 0.1483817109     1     6     2     1
 0.0016346150     1     6     2     2
 0.0004635880     1     6     2     4
 0.0002966060     1     6     2     9
 -0.0015202655     1     6     2    10
 0.0004755095     1     6     2    12
 -0.0045024891     1     6     3     3
 -0.0024348070     1     6     3     7
 -0.0032161285     1     6     3     8
 -0.0043014989     1     6     3    13
 -0.0808057376     1     6     4     1
 -0.0073837296     1     6     4     2
 -0.0092934803     1     6     4     4
 -0.0001203216     1     6     4     9
 0.0046282507     1     6     4    10
 -0.0015520183     1     6     4    12
 -0.0089532300     1     6     5     5
 0.0066155917     1     6     5    11
 -0.3477853257     1     6     6     1
 -0.0017672196     1     6     6     2
 -0.0041533326     1     6     6     4
 -0.0003822315     1     6     6     9
 0.0018975478     1     6     6    10
 -0.0004284310     1     6     6    12
 -0.0045730936     1     6     7     3
 -0.0017836093     1     6     7     7
 -0.0017636321     1     6     7     8
 -0.0036076881     1     6     7    13
 -0.0027767600     1     6     8     3
 -0.0008502121     1     6     8     7
 -0.0006046236     1     6     8     8
 -0.0010805591     1     6     8    13
 -0.1071897885     1     6     9     1
 -0.0018826233     1     6     9     2
 -0.0030127624     1     6     9     4
 0.0007015371     1     6     9     9
 0.0016083221     1     6     9    10
 -0.0003483440     1     6     9    12
 0.0898943055     1     6    10     1
 0.0037265005     1     6    10     2
 0.0083542907     1     6    10     4
 0.0005858662     1     6    10     9
 -0.0051588107     1     6    10    10
 0.0002401700     1     6    10    12
 0.0089871600     1     6    11     5
 -0.0068801171     1     6    11    11
 -0.0571427700     1     6    12     1
 -0.0010034490     1     6    12     2
 -0.0026914220     1     6    12     4
 -0.0001464136     1     6    12     9
 0.0004003985     1     6    12    10
 0.0004059479     1     6    12    12
 -0.0062032403     1     6    13     3
 -0.0028323973     1     6    13     7
 -0.0021026336     1     6    13     8
 -0.0054014736     1     6    13    13
 0.0008783570     1     6    14    14
 -0.0025815855     1     7     2     3
 0.0004877653     1     7     2     8
 0.0010262412     1     7     2    13
 -0.1791175620     1     7     3     1
 -0.0132190911     1     7     3     2
 -0.0023870901     1     7     3     4
 0.0024348070     1     7     3     6
 0.0005367613     1     7     3     9
 -0.0003163051     1     7     3    10
 0.0025211881     1     7     3    12
 0.0013214477     1     7     4     3
 -0.0017696318     1     7     4     8
 0.0009081518     1     7     4    13
 0.0019543110     1     7     5    14
 -0.0021194089     1     7     6     3
 -0.0009116438     1     7     6     8
 -0.0007699489     1     7     6    13
 -0.3252900879     1     7     7     1
 -0.0049196640     1     7     7     2
 -0.0027793152     1     7     7     4
 0.0017836093     1     7     7     6
 0.0009315809     1     7     7     9
 0.0006137417     1     7     7    10
 0.0005961534     1     7     7    12
 -0.0988016995     1     7     8     1
 -0.0038553811     1     7     8     2
 -0.0029308029     1     7     8     4
 0.0008502121     1     7     8     6
 0.0016196128     1     7     8     9
 -0.0005496778     1     7     8    10
 0.0012704860     1     7     8    12
 -0.0019960018     1     7     9     3
 0.0005471011     1     7     9     8
 0.0005960434     1     7     9    13
 -0.0002020316     1     7    10     3
 -0.0003033613     1     7    10     8
 0.0003784688     1     7    10    13
 0.0003355089     1     7    11    14
 0.0008443639     1     7    12     3
 0.0005661462     1     7    12     8
 0.0000727868     1     7    12    13
 -0.1675838463     1     7    13     1
 -0.0081568747     1     7    13     2
 -0.0026498005     1     7    13     4
 0.0028323973     1     7    13     6
 0.0026732892     1     7    13     9
 0.0005412334     1     7    13    10
 0.0014381881     1     7    13    12
 0.0018923536     1     7    14     5
 0.0003722688     1     7    14    11
 -0.0032348515     1     8     2     3
 -0.0004877653     1     8     2     7
 -0.0000219067     1     8     2    13
 -0.1071719873     1     8     3     1
 -0.0117358723     1     8     3     2
 0.0023801609     1     8     3     4
 0.0032161285     1     8     3     6
 0.0017542626     1     8     3     9
 -0.0033158603     1     8     3    10
 0.0028949737     1     8     3    12
 0.0050475124     1     8     4     3
 0.0017696318     1     8     4     7
 0.0039781227     1     8     4    13
 0.0015548984     1     8     5    14
 0.0004271217     1     8     6     3
 0.0009116438     1     8     6     7
 0.0010273356     1     8     6    13
 -0.0988016995     1     8     7     1
 -0.0043421880     1     8     7     2
 -0.0011787286     1     8     7     4
 0.0017636321     1     8     7     6
 0.0010750772     1     8     7     9
 -0.0002534854     1     8     7    10
 0.0007073553     1     8     7    12
 -0.4543102881     1     8     8     1
 -0.0033850339     1     8     8     2
 -0.0028577155     1     8     8     4
 0.0006046236     1     8     8     6
 0.0012459382     1     8     8     9
 -0.0002037084     1     8     8    10
 0.0009544762     1     8     8    12
 -0.0029163129     1     8     9     3
 -0.0005471011     1     8     9     7
 -0.0004836391     1     8     9    13
 0.0005251996     1     8    10     3
 0.0003033613     1     8    10     7
 0.0008327201     1     8    10    13
 0.0002369071     1     8    11    14
 -0.0006281869     1     8    12     3
 -0.0005661462     1     8    12     7
 -0.0009315737     1     8    12    13
 -0.0846819877     1     8    13     1
 -0.0066145921     1     8    13     2
 -0.0032806802     1     8    13     4
 0.0021026336     1     8    13     6
 0.0019325793     1     8    13     9
 0.0011589176     1     8    13    10
 0.0010433334     1     8    13    12
 0.0010879861     1     8    14     5
 0.0006282545     1     8    14    11
 0.1183906862     1     9     2     1
 0.0019706074     1     9     2     2
 -0.0004348284     1     9     2     4
 -0.0002966060     1     9     2     6
 -0.0009749209     1     9     2    10
 0.0003034982     1     9     2    12
 -0.0001623837     1     9     3     3
 -0.0005367613     1     9     3     7
 -0.0017542626     1     9     3     8
 -0.0008287376     1     9     3    13
 -0.0638690812     1     9     4     1
 -0.0080104198     1     9     4     2
 -0.0097271233     1     9     4     4
 0.0001203216     1     9     4     6
 0.0047694231     1     9     4    10
 -0.0015483242     1     9     4    12
 -0.0119476002     1     9     5     5
 0.0088787104     1     9     5    11
 -0.1071897885     1     9     6     1
 -0.0021510193     1     9     6     2
 -0.0029221874     1     9     6     4
 0.0003822315     1     9     6     6
 0.0010241754     1     9     6    10
 -0.0002019366     1     9     6    12
 -0.0025815816     1     9     7     3
 -0.0009315809     1     9     7     7
 -0.0010750772     1     9     7     8
 -0.0020727635     1     9     7    13
 -0.0046680902     1     9     8     3
 -0.0016196128     1     9     8     7
 -0.0012459382     1     9     8     8
 -0.0024128491     1     9     8    13
 -0.4543837009     1     9     9     1
 -0.0016775232     1     9     9     2
 -0.0060486969     1     9     9     4
 -0.0007015371     1     9     9     6
 0.0035735043     1     9     9    10
 -0.0008265461     1     9     9    12
 0.0560501673     1     9    10     1
 0.0043837192     1     9    10     2
 0.0067342887     1     9    10     4
 -0.0005858662     1     9    10     6
 -0.0040195454     1     9    10    10
 -0.0001064142     1     9    10    12
 0.0065726563     1     9    11     5
 -0.0051134182     1     9    11    11
 -0.0197633956     1     9    12     1
 -0.0011188172     1     9    12     2
 -0.0023214098     1     9    12     4
 0.0001464136     1     9    12     6
 0.0000761016     1     9    12    10
 0.0005030826     1     9    12    12
 -0.0058454193     1     9    13     3
 -0.0026732892     1     9    13     7
 -0.0019325793     1     9    13     8
 -0.0051113169     1     9    13    13
 0.0009113384     1     9    14    14
 -0.0400143848     1    10     2     1
 -0.0056972410     1    10     2     2
 0.0041883050     1    10     2     4
 0.0015202655     1    10     2     6
 0.0009749209     1    10     2     9
 -0.0001208814     1    10     2    12
 -0.0025272612     1    10     3     3
 0.0003163051     1    10     3     7
 0.0033158603     1    10     3     8
 -0.0002455851     1    10     3    13
 0.2687718976     1    10     4     1
 0.0226540816     1    10     4     2
 0.0067149200     1    10     4     4
 -0.0046282507     1    10     4     6
 -0.0047694231     1    10     4     9
 0.0009854926     1    10     4    12
 -0.0029512400     1    10     5     5
 0.0018380208     1    10     5    11
 0.0898943055     1    10     6     1
 0.0052367431     1    10     6     2
 0.0038062692     1    10     6     4
 -0.0018975478     1    10     6     6
 -0.0010241754     1    10     6     9
 -0.0001579058     1    10     6    12
 0.0001624706     1    10     7     3
 -0.0006137417     1    10     7     7
 0.0002534854     1    10     7     8
 -0.0001604776     1    10     7    13
 0.0038672579     1    10     8     3
 0.0005496778     1    10     8     7
 0.0002037084     1    10     8     8
 -0.0003206177     1    10     8    13
 0.0560501673     1    10     9     1
 0.0053323833     1    10     9     2
 0.0020116284     1    10     9     4
 -0.0016083221     1    10     9     6
 -0.0035735043     1    10     9     9
 -0.0001827427     1    10     9    12
 -0.5357654051     1    10    10     1
 -0.0134830249     1    10    10     2
 -0.0029114523     1    10    10     4
 0.0051588107     1    10    10     6
 0.0040195454     1    10    10     9
 0.0028518730     1    10    10    12
 0.0000655377     1    10    11     5
 -0.0001069963     1    10    11    11
 0.0456889701     1    10    12     1
 0.0025514393     1    10    12     2
 0.0058114792     1    10    12     4
 -0.0004003985     1    10    12     6
 -0.0000761016     1    10    12     9
 -0.0013274350     1    10    12    12
 -0.0013943959     1    10    13     3
 -0.0005412334     1    10    13     7
 -0.0011589176     1    10    13     8
 -0.0003982223     1    10    13    13
 -0.0023086334     1    10    14    14
 0.0059187013     1    11     2     5
 -0.0036872593     1    11     3    14
 0.0011388781     1    11     4     5
 0.3465046051     1    11     5     1
 0.0293458365     1    11     5     2
 0.0093708039     1    11     5     4
 -0.0066155917     1    11     5     6
 -0.0088787104     1    11     5     9
 -0.0018380208     1    11     5    10
 -0.0048819914     1    11     5    12
 0.0023259241     1    11     6     5
 -0.0000448031     1    11     7    14
 -0.0003940398     1    11     8    14
 -0.0023620141     1    11     9     5
 -0.0016449926     1    11    10     5
 -0.6615316680     1    11    11     1
 -0.0191720784     1    11    11     2
 -0.0065670331     1    11    11     4
 0.0068801171     1    11    11     6
 0.0051134182     1    11    11     9
 0.0001069963     1    11    11    10
 0.0030741104     1    11    11    12
 -0.0009439671     1    11    12     5
 -0.0002266025     1    11    13    14
 -0.0045315190     1    11    14     3
 -0.0003722688     1    11    14     7
 -0.0006282545     1    11    14     8
 -0.0007978453     1    11    14    13
 0.0693138127     1    12     2     1
 0.0014962013     1    12     2     2
 -0.0013248028     1    12     2     4
 -0.0004755095     1    12     2     6
 -0.0003034982     1    12     2     9
 0.0001208814     1    12     2    10
 -0.0049868056     1    12     3     3
 -0.0025211881     1    12     3     7
 -0.0028949737     1    12     3     8
 -0.0044650250     1    12     3    13
 -0.0402715111     1    12     4     1
 -0.0059848602     1    12     4     2
 -0.0003436071     1    12     4     4
 0.0015520183     1    12     4     6
 0.0015483242     1    12     4     9
 -0.0009854926     1    12     4    10
 -0.0065940920     1    12     5     5
 0.0048819914     1    12     5    11
 -0.0571427700     1    12     6     1
 -0.0014619588     1    12     6     2
 -0.0011429558     1    12     6     4
 0.0004284310     1    12     6     6
 0.0002019366     1    12     6     9
 0.0001579058     1    12     6    10
 -0.0016834186     1    12     7     3
 -0.0005961534     1    12     7     7
 -0.0007073553     1    12     7     8
 -0.0013736232     1    12     7    13
 -0.0035121726     1    12     8     3
 -0.0012704860     1    12     8     7
 -0.0009544762     1    12     8     8
 -0.0019781313     1    12     8    13
 -0.0197633956     1    12     9     1
 -0.0014208936     1    12     9     2
 -0.0007483099     1    12     9     4
 0.0003483440     1    12     9     6
 0.0008265461     1    12     9     9
 0.0001827427     1    12     9    10
 0.0456889701     1    12    10     1
 0.0026995059     1    12    10     2
 0.0047830891     1    12    10     4
 -0.0002401700     1    12    10     6
 0.0001064142     1    12    10     9
 -0.0028518730     1    12    10    10
 0.0039822596     1    12    11     5
 -0.0030741104     1    12    11    11
 -0.4314101945     1    12    12     1
 -0.0006282226     1    12    12     2
 -0.0034693402     1    12    12     4
 -0.0004059479     1    12    12     6
 -0.0005030826     1    12    12     9
 0.0013274350     1    12    12    10
 -0.0031284103     1    12    13     3
 -0.0014381881     1    12    13     7
 -0.0010433334     1    12    13     8
 -0.0027986375     1    12    13    13
 0.0005889688     1    12    14    14
 -0.0070399019     1    13     2     3
 -0.0010262412     1    13     2     7
 0.0000219067     1    13     2     8
 -0.2529018863     1    13     3     1
 -0.0240541025     1    13     3     2
 -0.0056328193     1    13     3     4
 0.0043014989     1    13     3     6
 0.0008287376     1    13     3     9
 0.0002455851     1    13     3    10
 0.0044650250     1    13     3    12
 0.0002919731     1    13     4     3
 -0.0009081518     1    13     4     7
 -0.0039781227     1    13     4     8
 0.0035539125     1    13     5    14
 -0.0019272166     1    13     6     3
 0.0007699489     1    13     6     7
 -0.0010273356     1    13     6     8
 -0.1675838463     1    13     7     1
 -0.0092316108     1    13     7     2
 -0.0035801334     1    13     7     4
 0.0036076881     1    13     7     6
 0.0020727635     1    13     7     9
 0.0001604776     1    13     7    10
 0.0013736232     1    13     7    12
 -0.0846819877     1    13     8     1
 -0.0066334729     1    13     8     2
 -0.0072498613     1    13     8     4
 0.0010805591     1    13     8     6
 0.0024128491     1    13     8     9
 0.0003206177     1    13     8    10
 0.0019781313     1    13     8    12
 -0.0049959688     1    13     9     3
 -0.0005960434     1    13     9     7
 0.0004836391     1    13     9     8
 -0.0012575207     1    13    10     3
 -0.0003784688     1    13    10     7
 -0.0008327201     1    13    10     8
 0.0005702273     1    13    11    14
 0.0013252483     1    13    12     3
 -0.0000727868     1    13    12     7
 0.0009315737     1    13    12     8
 -0.5461615291     1    13    13     1
 -0.0151013482     1    13    13     2
 -0.0039879709     1    13    13     4
 0.0054014736     1    13    13     6
 0.0051113169     1    13    13     9
 0.0003982223     1    13    13    10
 0.0027986375     1    13    13    12
 0.0031878291     1    13    14     5
 0.0007978453     1    13    14    11
 -0.0049669782     1    14     3     5
 0.0036872593     1    14     3    11
 -0.0043964709     1    14     5     3
 -0.0019543110     1    14     5     7
 -0.0015548984     1    14     5     8
 -0.0035539125     1    14     5    13
 -0.0000357429     1    14     7     5
 0.0000448031     1    14     7    11
 -0.0004831296     1    14     8     5
 0.0003940398     1    14     8    11
 -0.0007815002     1    14    11     3
 -0.0003355089     1    14    11     7
 -0.0002369071     1    14    11     8
 -0.0005702273     1    14    11    13
 -0.0003188165     1    14    13     5
 0.0002266025     1    14    13    11
 -0.4173095089     1    14    14     1
 0.0003551314     1    14    14     2
 -0.0034965029     1    14    14     4
 -0.0008783570     1    14    14     6
 -0.0009113384     1    14    14     9
 0.0023086334     1    14    14    10
 -0.0005889688     1    14    14    12
 -0.9839923860     2     1     1     2
 -0.0689311669     2     1     1     4
 0.1483817109     2     1     1     6
 0.1183906862     2     1     1     9
 -0.0400143848     2     1     1    10
 0.0693138127     2     1     1    12
 0.0306614768     2     1     3     3
 0.0099874393     2     1     3     7
 0.0079820408     2     1     3     8
 0.0159364052     2     1     3    13
 -0.0069319351     2     1     4     2
 0.0359380378     2     1     4     4
 0.0073805393     2     1     4     6
 0.0071316336     2     1     4     9
 -0.0173168712     2     1     4    10
 0.0043855384     2     1     4    12
 0.0411699348     2     1     5     5
 -0.0220115729     2     1     5    11
 -0.0016346150     2     1     6     2
 0.0073837296     2     1     6     4
 0.0017672196     2     1     6     6
 0.0018826233     2     1     6     9
 -0.0037265005     2     1     6    10
 0.0010034490     2     1     6    12
 0.0132190911     2     1     7     3
 0.0049196640     2     1     7     7
 0.0038553811     2     1     7     8
 0.0081568747     2     1     7    13
 0.0117358723     2     1     8     3
 0.0043421880     2     1     8     7
 0.0033850339     2     1     8     8
 0.0066145921     2     1     8    13
 -0.0019706074     2     1     9     2
 0.0080104198     2     1     9     4
 0.0021510193     2     1     9     6
 0.0016775232     2     1     9     9
 -0.0043837192     2     1     9    10
 0.0011188172     2     1     9    12
 0.0056972410     2     1    10     2
 -0.0226540816     2     1    10     4
 -0.0052367431     2     1    10     6
 -0.0053323833     2     1    10     9
 0.0134830249     2     1    10    10
 -0.0025514393     2     1    10    12
 -0.0293458365     2     1    11     5
 0.0191720784     2     1    11    11
 -0.0014962013     2     1    12     2
 0.0059848602     2     1    12     4
 0.0014619588     2     1    12     6
 0.0014208936     2     1    12     9
 -0.0026995059     2     1    12    10
 0.0006282226     2     1    12    12
 0.0240541025     2     1    13     3
 0.0092316108     2     1    13     7
 0.0066334729     2     1    13     8
 0.0151013482     2     1    13    13
 -0.0003551314     2     1    14    14
 0.9839923860     2     2     1     1
 0.0069319351     2     2     1     4
 0.0016346150     2     2     1     6
 0.0019706074     2     2     1     9
 -0.0056972410     2     2     1    10
 0.0014962013     2     2     1    12
 0.5273145207     2     2     3     3
 0.0721382231     2     2     3     7
 0.0232320321     2     2     3     8
 0.0889127458     2     2     3    13
 0.0069319351     2     2     4     1
 0.5516401068     2     2     4     4
 0.0349167157     2     2     4     6
 0.0216869821     2     2     4     9
 -0.1012583215     2     2     4    10
 0.0045571631     2     2     4    12
 0.5802728507     2     2     5     5
 -0.1285404219     2     2     5    11
 0.0016346150     2     2     6     1
 0.0349167157     2     2     6     4
 0.3004828669     2     2     6     6
 0.0573276851     2     2     6     9
 -0.0522608237     2     2     6    10
 0.0289502558     2     2     6    12
 0.0721382231     2     2     7     3
 0.2840213346     2     2     7     7
 0.0606025852     2     2     7     8
 0.0899778993     2     2     7    13
 0.0232320321     2     2     8     3
 0.0606025852     2     2     8     7
 0.4058366989     2     2     8     8
 0.0347634478     2     2     8    13
 0.0019706074     2     2     9     1
 0.0216869821     2     2     9     4
 0.0573276851     2     2     9     6
 0.4064445119     2     2     9     9
 -0.0144420297     2     2     9    10
 -0.0050608040     2     2     9    12
 -0.0056972410     2     2    10     1
 -0.1012583215     2     2    10     4
 -0.0522608237     2     2    10     6
 -0.0144420297     2     2    10     9