&FCI NORB=  9,NELEC=  6,MS2=0,
 ORBSYM=1,1,1,1,1,1,1,1,1
 ISYM=1,
&END
 0.2009933411     1     1     2     2
 -0.0269212649     1     1     2     4
 -0.0008192543     1     1     2     6
 0.0078003165     1     1     2     8
 0.2434456497     1     1     3     3
 -0.0385563073     1     1     3     5
 -0.0095121262     1     1     3     7
 -0.0269212649     1     1     4     2
 0.2389271914     1     1     4     4
 -0.0511845002     1     1     4     6
 -0.0308829173     1     1     4     8
 -0.0385563073     1     1     5     3
 0.1848530927     1     1     5     5
 -0.0022837094     1     1     5     7
 -0.0008192543     1     1     6     2
 -0.0511845002     1     1     6     4
 0.1871540408     1     1     6     6
 -0.0095079057     1     1     6     8
 -0.0095121262     1     1     7     3
 -0.0022837094     1     1     7     5
 0.2377339940     1     1     7     7
 0.0078003165     1     1     8     2
 -0.0308829173     1     1     8     4
 -0.0095079057     1     1     8     6
 0.1979668885     1     1     8     8
 0.2934126240     1     1     9     9
 -0.2009933411     1     2     2     1
 -0.0677143631     1     2     2     3
 0.0057220447     1     2     2     5
 0.0106857914     1     2     2     7
 -0.0555242052     1     2     3     4
 0.0263905879     1     2     3     6
 0.0142923154     1     2     3     8
 0.0269212649     1     2     4     1
 -0.0165922425     1     2     4     3
 -0.0447806564     1     2     4     5
 -0.0140145544     1     2     4     7
 -0.0311654717     1     2     5     4
 -0.0353882810     1     2     5     6
 -0.0078721921     1     2     5     8
 0.0008192543     1     2     6     1
 0.0156245846     1     2     6     3
 -0.0284207241     1     2     6     5
 0.0171808425     1     2     6     7
 -0.0075219552     1     2     7     4
 0.0155929380     1     2     7     6
 -0.0366136829     1     2     7     8
 -0.0078003165     1     2     8     1
 0.0012649642     1     2     8     3
 -0.0028849684     1     2     8     5
 -0.0336139308     1     2     8     7
 0.0677143631     1     3     2     2
 -0.0389319627     1     3     2     4
 0.0107660033     1     3     2     6
 0.0130273512     1     3     2     8
 -0.2434456497     1     3     3     1
 -0.0281542273     1     3     3     5
 0.0060325826     1     3     3     7
 0.0165922425     1     3     4     2
 0.0059426164     1     3     4     4
 -0.0178404942     1     3     4     6
 -0.0088783940     1     3     4     8
 0.0385563073     1     3     5     1
 -0.0043270751     1     3     5     5
 -0.0068784441     1     3     5     7
 -0.0156245846     1     3     6     2
 -0.0053709751     1     3     6     4
 -0.0020594794     1     3     6     6
 0.0000000001     1     3     6     7
 -0.0049198474     1     3     6     8
 0.0095121262     1     3     7     1
 -0.0026563218     1     3     7     5
 0.0250065453     1     3     7     7
 -0.0012649642     1     3     8     2
 -0.0088152689     1     3     8     4
 -0.0011799159     1     3     8     6
 -0.0000000001     1     3     8     7
 0.0049881423     1     3     8     8
 0.0387735922     1     3     9     9
 0.0269212649     1     4     2     1
 0.0389319627     1     4     2     3
 -0.0136151847     1     4     2     5
 -0.0064925992     1     4     2     7
 0.0555242052     1     4     3     2
 -0.0124695191     1     4     3     6
 -0.0000631251     1     4     3     8
 -0.2389271914     1     4     4     1
 -0.0059426164     1     4     4     3
 -0.0049343140     1     4     4     5
 0.0138960576     1     4     4     7
 0.0311654717     1     4     5     2
 -0.0038003304     1     4     5     6
 -0.0014634383     1     4     5     8
 0.0511845002     1     4     6     1
 0.0053709751     1     4     6     3
 0.0022714887     1     4     6     5
 -0.0100878370     1     4     6     7
 -0.0000000003     1     4     6     8
 0.0075219552     1     4     7     2
 -0.0055795575     1     4     7     6
 0.0000000001     1     4     7     7
 0.0095760289     1     4     7     8
 0.0308829173     1     4     8     1
 0.0088152689     1     4     8     3
 -0.0032346528     1     4     8     5
 -0.0000000001     1     4     8     6
 0.0050201677     1     4     8     7
 -0.0057220447     1     5     2     2
 0.0136151847     1     5     2     4
 -0.0069675569     1     5     2     6
 -0.0049872237     1     5     2     8
 0.0385563073     1     5     3     1
 0.0281542273     1     5     3     3
 -0.0042221223     1     5     3     7
 0.0447806564     1     5     4     2
 0.0049343140     1     5     4     4
 -0.0060718191     1     5     4     6
 0.0017712145     1     5     4     8
 -0.1848530927     1     5     5     1
 0.0043270751     1     5     5     3
 0.0075813413     1     5     5     7
 -0.0000000001     1     5     5     8
 0.0284207241     1     5     6     2
 -0.0022714887     1     5     6     4
 0.0020232923     1     5     6     6
 -0.0004472309     1     5     6     8
 0.0022837094     1     5     7     1
 0.0026563218     1     5     7     3
 0.0000000001     1     5     7     6
 0.0041796556     1     5     7     7
 -0.0000000002     1     5     7     8
 0.0028849684     1     5     8     2
 0.0032346528     1     5     8     4
 -0.0033594185     1     5     8     6
 0.0036460303     1     5     8     8
 0.0086365963     1     5     9     9
 0.0008192543     1     6     2     1
 -0.0107660033     1     6     2     3
 0.0069675569     1     6     2     5
 0.0015879045     1     6     2     7
 -0.0263905879     1     6     3     2
 0.0124695191     1     6     3     4
 0.0000000001     1     6     3     7
 -0.0037399315     1     6     3     8
 0.0511845002     1     6     4     1
 0.0178404942     1     6     4     3
 0.0060718191     1     6     4     5
 -0.0045082795     1     6     4     7
 -0.0000000002     1     6     4     8
 0.0353882810     1     6     5     2
 0.0038003304     1     6     5     4
 -0.0000000001     1     6     5     7
 0.0029121876     1     6     5     8
 -0.1871540408     1     6     6     1
 0.0020594794     1     6     6     3
 -0.0020232923     1     6     6     5
 0.0072399269     1     6     6     7
 -0.0000000011     1     6     6     8
 -0.0155929380     1     6     7     2
 0.0055795575     1     6     7     4
 -0.0000000001     1     6     7     5
 -0.0023760652     1     6     7     8
 0.0095079057     1     6     8     1
 0.0011799159     1     6     8     3
 0.0000000001     1     6     8     4
 0.0033594185     1     6     8     5
 0.0012369890     1     6     8     7
 -0.0000000010     1     6     8     8
 -0.0106857914     1     7     2     2
 0.0064925992     1     7     2     4
 -0.0015879045     1     7     2     6
 -0.0029997521     1     7     2     8
 0.0095121262     1     7     3     1
 -0.0060325826     1     7     3     3
 0.0042221223     1     7     3     5
 -0.0000000001     1     7     3     6
 0.0000000001     1     7     3     8
 0.0140145544     1     7     4     2
 -0.0138960576     1     7     4     4
 0.0045082795     1     7     4     6
 0.0045558612     1     7     4     8
 0.0022837094     1     7     5     1
 0.0068784441     1     7     5     3
 -0.0075813413     1     7     5     5
 0.0000000001     1     7     5     6
 -0.0000000002     1     7     5     8
 -0.0171808425     1     7     6     2
 -0.0000000001     1     7     6     3
 0.0100878370     1     7     6     4
 -0.0072399269     1     7     6     6
 -0.0036130542     1     7     6     8
 -0.2377339940     1     7     7     1
 -0.0250065453     1     7     7     3
 -0.0000000001     1     7     7     4
 -0.0041796556     1     7     7     5
 -0.0000000001     1     7     7     8
 0.0336139308     1     7     8     2
 0.0000000001     1     7     8     3
 -0.0050201677     1     7     8     4
 -0.0012369890     1     7     8     6
 -0.0018223839     1     7     8     8
 -0.0322011446     1     7     9     9
 -0.0078003165     1     8     2     1
 -0.0130273512     1     8     2     3
 0.0049872237     1     8     2     5
 0.0029997521     1     8     2     7
 -0.0142923154     1     8     3     2
 0.0000631251     1     8     3     4
 0.0037399315     1     8     3     6
 -0.0000000001     1     8     3     7
 0.0308829173     1     8     4     1
 0.0088783940     1     8     4     3
 -0.0017712145     1     8     4     5
 0.0000000002     1     8     4     6
 -0.0045558612     1     8     4     7
 0.0078721921     1     8     5     2
 0.0014634383     1     8     5     4
 0.0000000001     1     8     5     5
 -0.0029121876     1     8     5     6
 0.0000000002     1     8     5     7
 0.0095079057     1     8     6     1
 0.0049198474     1     8     6     3
 0.0000000003     1     8     6     4
 0.0004472309     1     8     6     5
 0.0000000011     1     8     6     6
 0.0036130542     1     8     6     7
 0.0366136829     1     8     7     2
 -0.0095760289     1     8     7     4
 0.0000000002     1     8     7     5
 0.0023760652     1     8     7     6
 0.0000000001     1     8     7     7
 -0.1979668885     1     8     8     1
 -0.0049881423     1     8     8     3
 -0.0036460303     1     8     8     5
 0.0000000010     1     8     8     6
 0.0018223839     1     8     8     7
 -0.2934126240     1     9     9     1
 -0.0387735922     1     9     9     3
 -0.0086365963     1     9     9     5
 0.0322011446     1     9     9     7
 -0.2009933411     2     1     1     2
 0.0269212649     2     1     1     4
 0.0008192543     2     1     1     6
 -0.0078003165     2     1     1     8
 -0.0677143631     2     1     3     2
 -0.0165922425     2     1     3     4
 0.0156245846     2     1     3     6
 0.0012649642     2     1     3     8
 -0.0555242052     2     1     4     3
 -0.0311654717     2     1     4     5
 -0.0075219552     2     1     4     7
 0.0057220447     2     1     5     2
 -0.0447806564     2     1     5     4
 -0.0284207241     2     1     5     6
 -0.0028849684     2     1     5     8
 0.0263905879     2     1     6     3
 -0.0353882810     2     1     6     5
 0.0155929380     2     1     6     7
 0.0106857914     2     1     7     2
 -0.0140145544     2     1     7     4
 0.0171808425     2     1     7     6
 -0.0336139308     2     1     7     8
 0.0142923154     2     1     8     3
 -0.0078721921     2     1     8     5
 -0.0366136829     2     1     8     7
 0.2009933411     2     2     1     1
 0.0677143631     2     2     1     3
 -0.0057220447     2     2     1     5
 -0.0106857914     2     2     1     7
 0.0677143631     2     2     3     1
 0.2030532407     2     2     3     3
 -0.0145647308     2     2     3     5
 -0.0101966681     2     2     3     7
 0.2214433491     2     2     4     4
 -0.0335175528     2     2     4     6
 -0.0187042139     2     2     4     8
 -0.0057220447     2     2     5     1
 -0.0145647308     2     2     5     3
 0.1870410215     2     2     5     5
 0.0008310260     2     2     5     7
 -0.0335175528     2     2     6     4
 0.1867703786     2     2     6     6
 -0.0072244491     2     2     6     8
 -0.0106857914     2     2     7     1
 -0.0101966681     2     2     7     3
 0.0008310260     2     2     7     5
 0.2107567432     2     2     7     7
 -0.0187042139     2     2     8     4
 -0.0072244491     2     2     8     6
 0.1916089912     2     2     8     8
 0.2567418897     2     2     9     9
 -0.0677143631     2     3     1     2
 0.0389319627     2     3     1     4
 -0.0107660033     2     3     1     6
 -0.0130273512     2     3     1     8
 -0.2030532407     2     3     3     2
 0.0741321429     2     3     3     4
 -0.0174702123     2     3     3     6
 -0.0197029217     2     3     3     8
 0.0555242052     2     3     4     1
 0.0551497557     2     3     4     5
 0.0063135708     2     3     4     7
 0.0145647308     2     3     5     2
 0.0279552123     2     3     5     4
 0.0415913844     2     3     5     6
 0.0126336944     2     3     5     8
 -0.0263905879     2     3     6     1
 0.0277877670     2     3     6     5
 0.0000000001     2     3     6     6
 -0.0119385556     2     3     6     7
 0.0101966681     2     3     7     2
 0.0001151336     2     3     7     4
 -0.0103025899     2     3     7     6
 0.0347313513     2     3     7     8
 -0.0142923154     2     3     8     1
 0.0040713251     2     3     8     5
 0.0000000001     2     3     8     6
 0.0318176143     2     3     8     7
 0.0000000002     2     3     8     8
 -0.0269212649     2     4     1     1
 -0.0389319627     2     4     1     3
 0.0136151847     2     4     1     5
 0.0064925992     2     4     1     7
 0.0165922425     2     4     3     1
 -0.0741321429     2     4     3     3
 0.0271945434     2     4     3     5
 0.0061984372     2     4     3     7
 -0.2214433491     2     4     4     2
 0.0281621545     2     4     4     6
 0.0025813755     2     4     4     8
 0.0447806564     2     4     5     1
 -0.0279552123     2     4     5     3
 0.0060003669     2     4     5     5
 -0.0015001981     2     4     5     7
 0.0335175528     2     4     6     2
 -0.0004099997     2     4     6     6
 -0.0000000001     2     4     6     7
 0.0093450205     2     4     6     8
 0.0140145544     2     4     7     1
 -0.0001151336     2     4     7     3
 0.0015262360     2     4     7     5
 -0.0297842835     2     4     7     7
 -0.0000000001     2     4     7     8
 0.0187042139     2     4     8     2
 0.0057343090     2     4     8     6
 -0.0072652461     2     4     8     8
 -0.0422254460     2     4     9     9
 0.0057220447     2     5     1     2
 -0.0136151847     2     5     1     4
 0.0069675569     2     5     1     6
 0.0049872237     2     5     1     8
 0.0145647308     2     5     3     2
 -0.0271945434     2     5     3     4
 0.0138036174     2     5     3     6
 0.0085623693     2     5     3     8
 0.0311654717     2     5     4     1
 -0.0551497557     2     5     4     3
 -0.0030264341     2     5     4     7
 -0.1870410215     2     5     5     2
 -0.0060003669     2     5     5     4
 0.0119527403     2     5     5     6
 -0.0006954150     2     5     5     8
 0.0353882810     2     5     6     1
 -0.0277877670     2     5     6     3
 0.0008014732     2     5     6     7
 0.0000000001     2     5     6     8
 -0.0008310260     2     5     7     2
 -0.0015262360     2     5     7     4
 0.0042467807     2     5     7     6
 -0.0000000001     2     5     7     7
 -0.0075475652     2     5     7     8
 0.0078721921     2     5     8     1
 -0.0040713251     2     5     8     3
 -0.0079672978     2     5     8     7
 0.0000000001     2     5     8     8
 -0.0008192543     2     6     1     1
 0.0107660033     2     6     1     3
 -0.0069675569     2     6     1     5
 -0.0015879045     2     6     1     7
 -0.0156245846     2     6     3     1
 0.0174702123     2     6     3     3
 -0.0138036174     2     6     3     5
 -0.0016359657     2     6     3     7
 -0.0000000001     2     6     3     8
 0.0335175528     2     6     4     2
 -0.0281621545     2     6     4     4
 -0.0000000001     2     6     4     7
 0.0036107115     2     6     4     8
 0.0284207241     2     6     5     1
 -0.0415913844     2     6     5     3
 -0.0119527403     2     6     5     5
 -0.0034453075     2     6     5     7
 0.0000000001     2     6     5     8
 -0.1867703786     2     6     6     2
 -0.0000000001     2     6     6     3
 0.0004099997     2     6     6     4
 -0.0000000004     2     6     6     7
 -0.0052271093     2     6     6     8
 -0.0171808425     2     6     7     1
 0.0103025899     2     6     7     3
 -0.0042467807     2     6     7     5
 0.0018644914     2     6     7     7
 -0.0000000001     2     6     7     8
 0.0072244491     2     6     8     2
 -0.0000000001     2     6     8     3
 -0.0057343090     2     6     8     4
 -0.0000000004     2     6     8     7
 -0.0054009539     2     6     8     8
 -0.0031015442     2     6     9     9
 0.0106857914     2     7     1     2
 -0.0064925992     2     7     1     4
 0.0015879045     2     7     1     6
 0.0029997521     2     7     1     8
 0.0101966681     2     7     3     2
 -0.0061984372     2     7     3     4
 0.0016359657     2     7     3     6
 0.0029137370     2     7     3     8
 0.0075219552     2     7     4     1
 -0.0063135708     2     7     4     3
 0.0030264341     2     7     4     5
 0.0000000001     2     7     4     6
 -0.0000000001     2     7     4     8
 -0.0008310260     2     7     5     2
 0.0015001981     2     7     5     4
 0.0034453075     2     7     5     6
 0.0004197326     2     7     5     8
 -0.0155929380     2     7     6     1
 0.0119385556     2     7     6     3
 0.0000000001     2     7     6     4
 -0.0008014732     2     7     6     5
 0.0000000004     2     7     6     6
 0.0000000003     2     7     6     8
 -0.2107567432     2     7     7     2
 0.0297842835     2     7     7     4
 0.0000000001     2     7     7     5
 -0.0018644914     2     7     7     6
 -0.0064474567     2     7     7     8
 0.0366136829     2     7     8     1
 -0.0318176143     2     7     8     3
 0.0079672978     2     7     8     5
 0.0000000004     2     7     8     6
 0.0000000006     2     7     8     8
 0.0078003165     2     8     1     1
 0.0130273512     2     8     1     3
 -0.0049872237     2     8     1     5
 -0.0029997521     2     8     1     7
 -0.0012649642     2     8     3     1
 0.0197029217     2     8     3     3
 -0.0085623693     2     8     3     5
 0.0000000001     2     8     3     6
 -0.0029137370     2     8     3     7
 0.0187042139     2     8     4     2
 -0.0025813755     2     8     4     4
 -0.0036107115     2     8     4     6
 0.0000000001     2     8     4     7
 0.0028849684     2     8     5     1
 -0.0126336944     2     8     5     3
 0.0006954150     2     8     5     5
 -0.0000000001     2     8     5     6
 -0.0004197326     2     8     5     7
 0.0072244491     2     8     6     2
 -0.0093450205     2     8     6     4
 -0.0000000001     2     8     6     5
 0.0052271093     2     8     6     6
 -0.0000000003     2     8     6     7
 0.0336139308     2     8     7     1
 -0.0347313513     2     8     7     3
 0.0000000001     2     8     7     4
 0.0075475652     2     8     7     5
 0.0000000001     2     8     7     6
 0.0064474567     2     8     7     7
 -0.1916089912     2     8     8     2
 -0.0000000002     2     8     8     3
 0.0072652461     2     8     8     4
 -0.0000000001     2     8     8     5
 0.0054009539     2     8     8     6
 -0.0000000006     2     8     8     7
 0.0188180590     2     8     9     9
 -0.2567418897     2     9     9     2
 0.0422254460     2     9     9     4
 0.0031015442     2     9     9     6
 -0.0188180590     2     9     9     8
 -0.2434456497     3     1     1     3
 0.0385563073     3     1     1     5
 0.0095121262     3     1     1     7
 0.0677143631     3     1     2     2
 0.0165922425     3     1     2     4
 -0.0156245846     3     1     2     6
 -0.0012649642     3     1     2     8
 -0.0389319627     3     1     4     2
 0.0059426164     3     1     4     4
 -0.0053709751     3     1     4     6
 -0.0088152689     3     1     4     8
 -0.0281542273     3     1     5     3
 -0.0043270751     3     1     5     5
 -0.0026563218     3     1     5     7
 0.0107660033     3     1     6     2
 -0.0178404942     3     1     6     4
 -0.0020594794     3     1     6     6
 -0.0011799159     3     1     6     8
 0.0060325826     3     1     7     3
 -0.0068784441     3     1     7     5
 0.0000000001     3     1     7     6
 0.0250065453     3     1     7     7
 -0.0000000001     3     1     7     8
 0.0130273512     3     1     8     2
 -0.0088783940     3     1     8     4
 -0.0049198474     3     1     8     6
 0.0049881423     3     1     8     8
 0.0387735922     3     1     9     9
 0.0555242052     3     2     1     4
 -0.0263905879     3     2     1     6
 -0.0142923154     3     2     1     8
 -0.0677143631     3     2     2     1
 -0.2030532407     3     2     2     3
 0.0145647308     3     2     2     5
 0.0101966681     3     2     2     7
 0.0389319627     3     2     4     1
 0.0741321429     3     2     4     3
 0.0279552123     3     2     4     5
 0.0001151336     3     2     4     7
 0.0551497557     3     2     5     4
 0.0277877670     3     2     5     6
 0.0040713251     3     2     5     8
 -0.0107660033     3     2     6     1
 -0.0174702123     3     2     6     3
 0.0415913844     3     2     6     5
 0.0000000001     3     2     6     6
 -0.0103025899     3     2     6     7
 0.0000000001     3     2     6     8
 0.0063135708     3     2     7     4
 -0.0119385556     3     2     7     6
 0.0318176143     3     2     7     8
 -0.0130273512     3     2     8     1
 -0.0197029217     3     2     8     3
 0.0126336944     3     2     8     5
 0.0347313513     3     2     8     7
 0.0000000002     3     2     8     8
 0.2434456497     3     3     1     1
 0.0281542273     3     3     1     5
 -0.0060325826     3     3     1     7
 0.2030532407     3     3     2     2
 -0.0741321429     3     3     2     4
 0.0174702123     3     3     2     6
 0.0197029217     3     3     2     8
 -0.0741321429     3     3     4     2
 0.2160663189     3     3     4     4
 -0.0259596629     3     3     4     6
 -0.0238566681     3     3     4     8
 0.0281542273     3     3     5     1
 0.1816744267     3     3     5     5
 -0.0057542795     3     3     5     7
 0.0174702123     3     3     6     2
 -0.0259596629     3     3     6     4
 0.1799127399     3     3     6     6
 -0.0061458490     3     3     6     8
 -0.0060325826     3     3     7     1
 -0.0057542795     3     3     7     5
 0.2115033512     3     3     7     7
 0.0197029217     3     3     8     2
 -0.0238566681     3     3     8     4
 -0.0061458490     3     3     8     6
 0.1916287007     3     3     8     8
 0.2646271780     3     3     9     9
 -0.0555242052     3     4     1     2
 0.0124695191     3     4     1     6
 0.0000631251     3     4     1     8
 -0.0165922425     3     4     2     1
 0.0741321429     3     4     2     3
 -0.0271945434     3     4     2     5
 -0.0061984372     3     4     2     7
 -0.0059426164     3     4     4     1
 -0.2160663189     3     4     4     3
 0.0608386730     3     4     4     5
 0.0000000001     3     4     4     6
 0.0144194132     3     4     4     7
 -0.0000000001     3     4     4     8
 -0.0551497557     3     4     5     2
 0.0484117299     3     4     5     6
 0.0113163669     3     4     5     8
 0.0178404942     3     4     6     1
 0.0259596629     3     4     6     3
 0.0159401875     3     4     6     5
 0.0000000003     3     4     6     6
 -0.0153705427     3     4     6     7
 -0.0000000007     3     4     6     8
 -0.0063135708     3     4     7     2
 -0.0070980758     3     4     7     6
 0.0241315264     3     4     7     8
 0.0088783940     3     4     8     1
 0.0238566681     3     4     8     3
 -0.0037339784     3     4     8     5
 -0.0000000003     3     4     8     6
 0.0184592739     3     4     8     7
 0.0000000002     3     4     8     8
 -0.0385563073     3     5     1     1
 -0.0281542273     3     5     1     3
 0.0042221223     3     5     1     7
 -0.0145647308     3     5     2     2
 0.0271945434     3     5     2     4
 -0.0138036174     3     5     2     6
 -0.0085623693     3     5     2     8
 -0.0279552123     3     5     4     2
 -0.0608386730     3     5     4     4
 0.0324715424     3     5     4     6
 0.0150503453     3     5     4     8
 0.0043270751     3     5     5     1
 -0.1816744267     3     5     5     3
 0.0000000002     3     5     5     6
 0.0013495796     3     5     5     7
 -0.0000000003     3     5     5     8
 -0.0415913844     3     5     6     2
 -0.0159401875     3     5     6     4
 0.0042879950     3     5     6     6
 0.0000000001     3     5     6     7
 0.0053823101     3     5     6     8
 0.0068784441     3     5     7     1
 0.0057542795     3     5     7     3
 0.0000000003     3     5     7     6
 -0.0260386840     3     5     7     7
 -0.0000000006     3     5     7     8
 -0.0126336944     3     5     8     2
 0.0037339784     3     5     8     4
 0.0033321696     3     5     8     6
 -0.0136199028     3     5     8     8
 -0.0390032791     3     5     9     9
 0.0263905879     3     6     1     2
 -0.0124695191     3     6     1     4
 -0.0000000001     3     6     1     7
 0.0037399315     3     6     1     8
 0.0156245846     3     6     2     1
 -0.0174702123     3     6     2     3
 0.0138036174     3     6     2     5
 0.0016359657     3     6     2     7
 0.0000000001     3     6     2     8
 0.0053709751     3     6     4     1
 0.0259596629     3     6     4     3
 -0.0000000001     3     6     4     4
 -0.0324715424     3     6     4     5
 -0.0082724669     3     6     4     7
 -0.0000000004     3     6     4     8
 -0.0277877670     3     6     5     2
 -0.0484117299     3     6     5     4
 -0.0000000002     3     6     5     5
 -0.0000000002     3     6     5     7
 0.0020501405     3     6     5     8
 0.0020594794     3     6     6     1
 -0.0000000001     3     6     6     2
 -0.1799127399     3     6     6     3
 -0.0000000003     3     6     6     4
 -0.0042879950     3     6     6     5
 0.0059453573     3     6     6     7
 -0.0000000045     3     6     6     8
 -0.0000000001     3     6     7     1
 0.0119385556     3     6     7     2
 0.0070980758     3     6     7     4
 -0.0000000003     3     6     7     5
 -0.0000000005     3     6     7     7
 -0.0142544230     3     6     7     8
 0.0049198474     3     6     8     1
 0.0061458490     3     6     8     3
 0.0000000003     3     6     8     4
 -0.0033321696     3     6     8     5
 -0.0121183387     3     6     8     7
 -0.0000000042     3     6     8     8
 -0.0000000001     3     6     9     9
 -0.0095121262     3     7     1     1
 0.0060325826     3     7     1     3
 -0.0042221223     3     7     1     5
 0.0000000001     3     7     1     6
 -0.0000000001     3     7     1     8
 -0.0101966681     3     7     2     2
 0.0061984372     3     7     2     4
 -0.0016359657     3     7     2     6
 -0.0029137370     3     7     2     8
 -0.0001151336     3     7     4     2
 -0.0144194132     3     7     4     4
 0.0082724669     3     7     4     6
 0.0056722525     3     7     4     8
 0.0026563218     3     7     5     1
 0.0057542795     3     7     5     3
 -0.0013495796     3     7     5     5
 0.0000000002     3     7     5     6
 -0.0000000006     3     7     5     8
 0.0103025899     3     7     6     2
 0.0153705427     3     7     6     4
 -0.0000000001     3     7     6     5
 -0.0059453573     3     7     6     6
 -0.0021360843     3     7     6     8
 -0.0250065453     3     7     7     1
 -0.2115033512     3     7     7     3
 0.0260386840     3     7     7     5
 0.0000000005     3     7     7     6
 -0.0000000008     3     7     7     8
 -0.0347313513     3     7     8     2
 -0.0184592739     3     7     8     4
 0.0121183387     3     7     8     6
 0.0012303116     3     7     8     8
 -0.0171993603     3     7     9     9
 0.0142923154     3     8     1     2
 -0.0000631251     3     8     1     4
 -0.0037399315     3     8     1     6
 0.0000000001     3     8     1     7
 0.0012649642     3     8     2     1
 -0.0197029217     3     8     2     3
 0.0085623693     3     8     2     5
 -0.0000000001     3     8     2     6
 0.0029137370     3     8     2     7
 0.0088152689     3     8     4     1
 0.0238566681     3     8     4     3
 0.0000000001     3     8     4     4
 -0.0150503453     3     8     4     5
 0.0000000004     3     8     4     6
 -0.0056722525     3     8     4     7
 -0.0040713251     3     8     5     2
 -0.0113163669     3     8     5     4
 0.0000000003     3     8     5     5
 -0.0020501405     3     8     5     6
 0.0000000006     3     8     5     7
 0.0011799159     3     8     6     1
 -0.0000000001     3     8     6     2
 0.0061458490     3     8     6     3
 0.0000000007     3     8     6     4
 -0.0053823101     3     8     6     5
 0.0000000045     3     8     6     6
 0.0021360843     3     8     6     7
 0.0000000001     3     8     7     1
 -0.0318176143     3     8     7     2
 -0.0241315264     3     8     7     4
 0.0000000006     3     8     7     5
 0.0142544230     3     8     7     6
 0.0000000008     3     8     7     7
 -0.0049881423     3     8     8     1
 -0.0000000002     3     8     8     2
 -0.1916287007     3     8     8     3
 -0.0000000002     3     8     8     4
 0.0136199028     3     8     8     5
 0.0000000042     3     8     8     6
 -0.0012303116     3     8     8     7
 -0.0000000001     3     8     9     9
 -0.0387735922     3     9     9     1
 -0.2646271780     3     9     9     3
 0.0390032791     3     9     9     5
 0.0000000001     3     9     9     6
 0.0171993603     3     9     9     7
 0.0000000001     3     9     9     8
 0.0269212649     4     1     1     2
 -0.2389271914     4     1     1     4
 0.0511845002     4     1     1     6
 0.0308829173     4     1     1     8
 0.0555242052     4     1     2     3
 0.0311654717     4     1     2     5
 0.0075219552     4     1     2     7
 0.0389319627     4     1     3     2
 -0.0059426164     4     1     3     4
 0.0053709751     4     1     3     6
 0.0088152689     4     1     3     8
 -0.0136151847     4     1     5     2
 -0.0049343140     4     1     5     4
 0.0022714887     4     1     5     6
 -0.0032346528     4     1     5     8
 -0.0124695191     4     1     6     3
 -0.0038003304     4     1     6     5
 -0.0055795575     4     1     6     7
 -0.0000000001     4     1     6     8
 -0.0064925992     4     1     7     2
 0.0138960576     4     1     7     4
 -0.0100878370     4     1     7     6
 0.0000000001     4     1     7     7
 0.0050201677     4     1     7     8
 -0.0000631251     4     1     8     3
 -0.0014634383     4     1     8     5
 -0.0000000003     4     1     8     6
 0.0095760289     4     1     8     7
 -0.0269212649     4     2     1     1
 0.0165922425     4     2     1     3
 0.0447806564     4     2     1     5