&FCI NORB=  9,NELEC= 10,MS2=0,
 ORBSYM=1,1,1,1,1,1,1,1,1
 ISYM=1,
&END
 0.9839019893     1     1     2     2
 0.0677074521     1     1     2     4
 -0.1298957480     1     1     2     6
 -0.1053791912     1     1     2     9
 0.8684819938     1     1     3     3
 0.1531931141     1     1     3     7
 0.0906899517     1     1     3     8
 0.0677074521     1     1     4     2
 0.9500617072     1     1     4     4
 0.0670501367     1     1     4     6
 0.0544355538     1     1     4     9
 0.9969896957     1     1     5     5
 -0.1298957480     1     1     6     2
 0.0670501367     1     1     6     4
 0.3483730587     1     1     6     6
 0.1074391518     1     1     6     9
 0.1531931141     1     1     7     3
 0.3258691400     1     1     7     7
 0.0990916531     1     1     7     8
 0.0906899517     1     1     8     3
 0.0990916531     1     1     8     7
 0.4551992520     1     1     8     8
 -0.1053791912     1     1     9     2
 0.0544355538     1     1     9     4
 0.1074391518     1     1     9     6
 0.4550596475     1     1     9     9
 -0.9839019893     1     2     2     1
 -0.0070403245     1     2     2     4
 -0.0011596644     1     2     2     6
 -0.0016640254     1     2     2     9
 0.0310450272     1     2     3     3
 0.0123132707     1     2     3     7
 0.0111514241     1     2     3     8
 -0.0677074521     1     2     4     1
 0.0359738705     1     2     4     4
 0.0068454685     1     2     4     6
 0.0076077216     1     2     4     9
 0.0408693897     1     2     5     5
 0.1298957480     1     2     6     1
 0.0064871661     1     2     6     4
 0.0018284508     1     2     6     6
 0.0022109739     1     2     6     9
 0.0086703267     1     2     7     3
 0.0048100711     1     2     7     7
 0.0042596292     1     2     7     8
 0.0071602770     1     2     8     3
 0.0037808756     1     2     8     7
 0.0033709599     1     2     8     8
 0.1053791912     1     2     9     1
 0.0064749163     1     2     9     4
 0.0019147471     1     2     9     6
 0.0017396557     1     2     9     9
 0.0026644706     1     3     2     7
 0.0032706195     1     3     2     8
 -0.8684819938     1     3     3     1
 -0.0310450272     1     3     3     2
 -0.0106063864     1     3     3     4
 0.0044855997     1     3     3     6
 0.0002601357     1     3     3     9
 -0.0012674874     1     3     4     7
 -0.0049170405     1     3     4     8
 0.0021208334     1     3     6     7
 -0.0004175976     1     3     6     8
 -0.1531931141     1     3     7     1
 -0.0086703267     1     3     7     2
 -0.0031967482     1     3     7     4
 0.0043605494     1     3     7     6
 0.0023774019     1     3     7     9
 -0.0906899517     1     3     8     1
 -0.0071602770     1     3     8     2
 -0.0023900276     1     3     8     4
 0.0026200723     1     3     8     6
 0.0045026518     1     3     8     9
 0.0019683662     1     3     9     7
 0.0028836213     1     3     9     8
 -0.0677074521     1     4     2     1
 0.0070403245     1     4     2     2
 -0.0002982776     1     4     2     6
 0.0005344492     1     4     2     9
 0.0106063864     1     4     3     3
 0.0021471541     1     4     3     7
 -0.0023884028     1     4     3     8
 -0.9500617072     1     4     4     1
 -0.0359738705     1     4     4     2
 0.0090506660     1     4     4     6
 0.0095269912     1     4     4     9
 0.0137373348     1     4     5     5
 -0.0670501367     1     4     6     1
 -0.0064871661     1     4     6     2
 0.0040177568     1     4     6     6
 0.0028086971     1     4     6     9
 0.0031967482     1     4     7     3
 0.0027181133     1     4     7     7
 0.0011281953     1     4     7     8
 0.0023900276     1     4     8     3
 0.0028562849     1     4     8     7
 0.0027912665     1     4     8     8
 -0.0544355538     1     4     9     1
 -0.0064749163     1     4     9     2
 0.0029102821     1     4     9     6
 0.0059211639     1     4     9     9
 -0.9969896957     1     5     5     1
 -0.0408693897     1     5     5     2
 -0.0137373348     1     5     5     4
 0.0087688381     1     5     5     6
 0.0116786651     1     5     5     9
 0.1298957480     1     6     2     1
 0.0011596644     1     6     2     2
 0.0002982776     1     6     2     4
 0.0003150818     1     6     2     9
 -0.0044855997     1     6     3     3
 -0.0021364570     1     6     3     7
 -0.0029883605     1     6     3     8
 -0.0670501367     1     6     4     1
 -0.0068454685     1     6     4     2
 -0.0090506660     1     6     4     4
 -0.0001430513     1     6     4     9
 -0.0087688381     1     6     5     5
 -0.3483730587     1     6     6     1
 -0.0018284508     1     6     6     2
 -0.0040177568     1     6     6     4
 -0.0003810422     1     6     6     9
 -0.0043605494     1     6     7     3
 -0.0017637190     1     6     7     7
 -0.0017445114     1     6     7     8
 -0.0026200723     1     6     8     3
 -0.0008370046     1     6     8     7
 -0.0005870833     1     6     8     8
 -0.1074391518     1     6     9     1
 -0.0019147471     1     6     9     2
 -0.0029102821     1     6     9     4
 0.0007017722     1     6     9     9
 -0.0026644706     1     7     2     3
 0.0004573358     1     7     2     8
 -0.1531931141     1     7     3     1
 -0.0123132707     1     7     3     2
 -0.0021471541     1     7     3     4
 0.0021364570     1     7     3     6
 0.0003511671     1     7     3     9
 0.0012674874     1     7     4     3
 -0.0017048893     1     7     4     8
 -0.0021208334     1     7     6     3
 -0.0009068715     1     7     6     8
 -0.3258691400     1     7     7     1
 -0.0048100711     1     7     7     2
 -0.0027181133     1     7     7     4
 0.0017637190     1     7     7     6
 0.0009126388     1     7     7     9
 -0.0990916531     1     7     8     1
 -0.0037808756     1     7     8     2
 -0.0028562849     1     7     8     4
 0.0008370046     1     7     8     6
 0.0015951612     1     7     8     9
 -0.0019683662     1     7     9     3
 0.0005352437     1     7     9     8
 -0.0032706195     1     8     2     3
 -0.0004573358     1     8     2     7
 -0.0906899517     1     8     3     1
 -0.0111514241     1     8     3     2
 0.0023884028     1     8     3     4
 0.0029883605     1     8     3     6
 0.0016128257     1     8     3     9
 0.0049170405     1     8     4     3
 0.0017048893     1     8     4     7
 0.0004175976     1     8     6     3
 0.0009068715     1     8     6     7
 -0.0990916531     1     8     7     1
 -0.0042596292     1     8     7     2
 -0.0011281953     1     8     7     4
 0.0017445114     1     8     7     6
 0.0010584003     1     8     7     9
 -0.4551992520     1     8     8     1
 -0.0033709599     1     8     8     2
 -0.0027912665     1     8     8     4
 0.0005870833     1     8     8     6
 0.0012210238     1     8     8     9
 -0.0028836213     1     8     9     3
 -0.0005352437     1     8     9     7
 0.1053791912     1     9     2     1
 0.0016640254     1     9     2     2
 -0.0005344492     1     9     2     4
 -0.0003150818     1     9     2     6
 -0.0002601357     1     9     3     3
 -0.0003511671     1     9     3     7
 -0.0016128257     1     9     3     8
 -0.0544355538     1     9     4     1
 -0.0076077216     1     9     4     2
 -0.0095269912     1     9     4     4
 0.0001430513     1     9     4     6
 -0.0116786651     1     9     5     5
 -0.1074391518     1     9     6     1
 -0.0022109739     1     9     6     2
 -0.0028086971     1     9     6     4
 0.0003810422     1     9     6     6
 -0.0023774019     1     9     7     3
 -0.0009126388     1     9     7     7
 -0.0010584003     1     9     7     8
 -0.0045026518     1     9     8     3
 -0.0015951612     1     9     8     7
 -0.0012210238     1     9     8     8
 -0.4550596475     1     9     9     1
 -0.0017396557     1     9     9     2
 -0.0059211639     1     9     9     4
 -0.0007017722     1     9     9     6
 -0.9839019893     2     1     1     2
 -0.0677074521     2     1     1     4
 0.1298957480     2     1     1     6
 0.1053791912     2     1     1     9
 0.0310450272     2     1     3     3
 0.0086703267     2     1     3     7
 0.0071602770     2     1     3     8
 -0.0070403245     2     1     4     2
 0.0359738705     2     1     4     4
 0.0064871661     2     1     4     6
 0.0064749163     2     1     4     9
 0.0408693897     2     1     5     5
 -0.0011596644     2     1     6     2
 0.0068454685     2     1     6     4
 0.0018284508     2     1     6     6
 0.0019147471     2     1     6     9
 0.0123132707     2     1     7     3
 0.0048100711     2     1     7     7
 0.0037808756     2     1     7     8
 0.0111514241     2     1     8     3
 0.0042596292     2     1     8     7
 0.0033709599     2     1     8     8
 -0.0016640254     2     1     9     2
 0.0076077216     2     1     9     4
 0.0022109739     2     1     9     6
 0.0017396557     2     1     9     9
 0.9839019893     2     2     1     1
 0.0070403245     2     2     1     4
 0.0011596644     2     2     1     6
 0.0016640254     2     2     1     9
 0.5278368432     2     2     3     3
 0.0613195081     2     2     3     7
 0.0167036668     2     2     3     8
 0.0070403245     2     2     4     1
 0.5509376534     2     2     4     4
 0.0278907106     2     2     4     6
 0.0170150706     2     2     4     9
 0.5782632360     2     2     5     5
 0.0011596644     2     2     6     1
 0.0278907106     2     2     6     4
 0.3028250566     2     2     6     6
 0.0591176999     2     2     6     9
 0.0613195081     2     2     7     3
 0.2843611362     2     2     7     7
 0.0607215224     2     2     7     8
 0.0167036668     2     2     8     3
 0.0607215224     2     2     8     7
 0.4059972363     2     2     8     8
 0.0016640254     2     2     9     1
 0.0170150706     2     2     9     4
 0.0591176999     2     2     9     6
 0.4077928238     2     2     9     9
 -0.0026644706     2     3     1     7
 -0.0032706195     2     3     1     8
 -0.0310450272     2     3     3     1
 -0.5278368432     2     3     3     2
 -0.0018516257     2     3     3     4
 0.0605698957     2     3     3     6
 0.0670550615     2     3     3     9
 0.0105729515     2     3     4     7
 0.0331839738     2     3     4     8
 -0.0340052541     2     3     6     7
 0.0000259556     2     3     6     8
 -0.0123132707     2     3     7     1
 -0.0613195081     2     3     7     2
 0.0020584413     2     3     7     4
 -0.0213278270     2     3     7     6
 -0.0021393318     2     3     7     9
 -0.0111514241     2     3     8     1
 -0.0167036668     2     3     8     2
 0.0066653185     2     3     8     4
 0.0019275657     2     3     8     6
 -0.0289432505     2     3     8     9
 -0.0161224541     2     3     9     7
 -0.0293879288     2     3     9     8
 0.0677074521     2     4     1     1
 -0.0070403245     2     4     1     2
 0.0002982776     2     4     1     6
 -0.0005344492     2     4     1     9
 0.0018516257     2     4     3     3
 0.0088058286     2     4     3     7
 0.0273211726     2     4     3     8
 -0.0359738705     2     4     4     1
 -0.5509376534     2     4     4     2
 0.0599447372     2     4     4     6
 0.0365262199     2     4     4     9
 0.0045352759     2     4     5     5
 -0.0068454685     2     4     6     1
 -0.0278907106     2     4     6     2
 -0.0107382848     2     4     6     6
 0.0030469839     2     4     6     9
 -0.0020584413     2     4     7     3
 -0.0124960725     2     4     7     7
 -0.0023684899     2     4     7     8
 -0.0066653185     2     4     8     3
 -0.0082296834     2     4     8     7
 -0.0052957731     2     4     8     8
 -0.0076077216     2     4     9     1
 -0.0170150706     2     4     9     2
 0.0026762628     2     4     9     6
 -0.0260563181     2     4     9     9
 -0.0408693897     2     5     5     1
 -0.5782632360     2     5     5     2
 -0.0045352759     2     5     5     4
 0.0581900821     2     5     5     6
 0.0212683718     2     5     5     9
 -0.1298957480     2     6     1     1
 -0.0011596644     2     6     1     2
 -0.0002982776     2     6     1     4
 -0.0003150818     2     6     1     9
 -0.0605698957     2     6     3     3
 -0.0119170959     2     6     3     7
 -0.0012626908     2     6     3     8
 -0.0064871661     2     6     4     1
 -0.0278907106     2     6     4     2
 -0.0599447372     2     6     4     4
 0.0001675156     2     6     4     9
 -0.0581900821     2     6     5     5
 -0.0018284508     2     6     6     1
 -0.3028250566     2     6     6     2
 0.0107382848     2     6     6     4
 -0.0052635009     2     6     6     9
 0.0213278270     2     6     7     3
 -0.0079241631     2     6     7     7
 -0.0125592233     2     6     7     8
 -0.0019275657     2     6     8     3
 -0.0071070089     2     6     8     7
 -0.0249322254     2     6     8     8
 -0.0022109739     2     6     9     1
 -0.0591176999     2     6     9     2
 -0.0026762628     2     6     9     4
 -0.0203203933     2     6     9     9
 0.0026644706     2     7     1     3
 -0.0004573358     2     7     1     8
 -0.0086703267     2     7     3     1
 -0.0613195081     2     7     3     2
 -0.0088058286     2     7     3     4
 0.0119170959     2     7     3     6
 0.0124998092     2     7     3     9
 -0.0105729515     2     7     4     3
 0.0053233739     2     7     4     8
 0.0340052541     2     7     6     3
 -0.0054845143     2     7     6     8
 -0.0048100711     2     7     7     1
 -0.2843611362     2     7     7     2
 0.0124960725     2     7     7     4
 0.0079241631     2     7     7     6
 -0.0015919135     2     7     7     9
 -0.0042596292     2     7     8     1
 -0.0607215224     2     7     8     2
 0.0082296834     2     7     8     4
 0.0071070089     2     7     8     6
 0.0020709779     2     7     8     9
 0.0161224541     2     7     9     3
 -0.0039092515     2     7     9     8
 0.0032706195     2     8     1     3
 0.0004573358     2     8     1     7
 -0.0071602770     2     8     3     1
 -0.0167036668     2     8     3     2
 -0.0273211726     2     8     3     4
 0.0012626908     2     8     3     6
 -0.0005688910     2     8     3     9
 -0.0331839738     2     8     4     3
 -0.0053233739     2     8     4     7
 -0.0000259556     2     8     6     3
 0.0054845143     2     8     6     7
 -0.0037808756     2     8     7     1
 -0.0607215224     2     8     7     2
 0.0023684899     2     8     7     4
 0.0125592233     2     8     7     6
 0.0059063092     2     8     7     9
 -0.0033709599     2     8     8     1
 -0.4059972363     2     8     8     2
 0.0052957731     2     8     8     4
 0.0249322254     2     8     8     6
 0.0117721223     2     8     8     9
 0.0293879288     2     8     9     3
 0.0039092515     2     8     9     7
 -0.1053791912     2     9     1     1
 -0.0016640254     2     9     1     2
 0.0005344492     2     9     1     4
 0.0003150818     2     9     1     6
 -0.0670550615     2     9     3     3
 -0.0124998092     2     9     3     7
 0.0005688910     2     9     3     8
 -0.0064749163     2     9     4     1
 -0.0170150706     2     9     4     2
 -0.0365262199     2     9     4     4
 -0.0001675156     2     9     4     6
 -0.0212683718     2     9     5     5
 -0.0019147471     2     9     6     1
 -0.0591176999     2     9     6     2
 -0.0030469839     2     9     6     4
 0.0052635009     2     9     6     6
 0.0021393318     2     9     7     3
 0.0015919135     2     9     7     7
 -0.0059063092     2     9     7     8
 0.0289432505     2     9     8     3
 -0.0020709779     2     9     8     7
 -0.0117721223     2     9     8     8
 -0.0017396557     2     9     9     1
 -0.4077928238     2     9     9     2
 0.0260563181     2     9     9     4
 0.0203203933     2     9     9     6
 -0.8684819938     3     1     1     3
 -0.1531931141     3     1     1     7
 -0.0906899517     3     1     1     8
 -0.0310450272     3     1     2     3
 -0.0086703267     3     1     2     7
 -0.0071602770     3     1     2     8
 -0.0106063864     3     1     4     3
 -0.0031967482     3     1     4     7
 -0.0023900276     3     1     4     8
 0.0044855997     3     1     6     3
 0.0043605494     3     1     6     7
 0.0026200723     3     1     6     8
 0.0026644706     3     1     7     2
 -0.0012674874     3     1     7     4
 0.0021208334     3     1     7     6
 0.0019683662     3     1     7     9
 0.0032706195     3     1     8     2
 -0.0049170405     3     1     8     4
 -0.0004175976     3     1     8     6
 0.0028836213     3     1     8     9
 0.0002601357     3     1     9     3
 0.0023774019     3     1     9     7
 0.0045026518     3     1     9     8
 -0.0310450272     3     2     1     3
 -0.0123132707     3     2     1     7
 -0.0111514241     3     2     1     8
 -0.5278368432     3     2     2     3
 -0.0613195081     3     2     2     7
 -0.0167036668     3     2     2     8
 -0.0018516257     3     2     4     3
 0.0020584413     3     2     4     7
 0.0066653185     3     2     4     8
 0.0605698957     3     2     6     3
 -0.0213278270     3     2     6     7
 0.0019275657     3     2     6     8
 -0.0026644706     3     2     7     1
 0.0105729515     3     2     7     4
 -0.0340052541     3     2     7     6
 -0.0161224541     3     2     7     9
 -0.0032706195     3     2     8     1
 0.0331839738     3     2     8     4
 0.0000259556     3     2     8     6
 -0.0293879288     3     2     8     9
 0.0670550615     3     2     9     3
 -0.0021393318     3     2     9     7
 -0.0289432505     3     2     9     8
 0.8684819938     3     3     1     1
 0.0310450272     3     3     1     2
 0.0106063864     3     3     1     4
 -0.0044855997     3     3     1     6
 -0.0002601357     3     3     1     9
 0.0310450272     3     3     2     1
 0.5278368432     3     3     2     2
 0.0018516257     3     3     2     4
 -0.0605698957     3     3     2     6
 -0.0670550615     3     3     2     9
 0.0106063864     3     3     4     1
 0.0018516257     3     3     4     2
 0.5622664719     3     3     4     4
 0.0305283899     3     3     4     6
 0.0222617420     3     3     4     9
 0.5856253692     3     3     5     5
 -0.0044855997     3     3     6     1
 -0.0605698957     3     3     6     2
 0.0305283899     3     3     6     4
 0.3060468455     3     3     6     6
 0.0596709102     3     3     6     9
 0.2702290630     3     3     7     7
 0.0461716995     3     3     7     8
 0.0461716995     3     3     8     7
 0.3800625398     3     3     8     8
 -0.0002601357     3     3     9     1
 -0.0670550615     3     3     9     2
 0.0222617420     3     3     9     4
 0.0596709102     3     3     9     6
 0.3902297570     3     3     9     9
 -0.0106063864     3     4     1     3
 -0.0021471541     3     4     1     7
 0.0023884028     3     4     1     8
 -0.0018516257     3     4     2     3
 -0.0088058286     3     4     2     7
 -0.0273211726     3     4     2     8
 -0.5622664719     3     4     4     3
 -0.0767166872     3     4     4     7
 -0.0407208425     3     4     4     8
 -0.0305283899     3     4     6     3
 0.0000116843     3     4     6     7
 -0.0031733411     3     4     6     8
 0.0012674874     3     4     7     1
 -0.0105729515     3     4     7     2
 0.0075439095     3     4     7     6
 -0.0026553630     3     4     7     9
 0.0049170405     3     4     8     1
 -0.0331839738     3     4     8     2
 -0.0001064142     3     4     8     6
 -0.0092352609     3     4     8     9
 -0.0222617420     3     4     9     3
 -0.0018052256     3     4     9     7
 0.0095793083     3     4     9     8
 -0.5856253692     3     5     5     3
 -0.0791305321     3     5     5     7
 -0.0321074405     3     5     5     8
 0.0044855997     3     6     1     3
 0.0021364570     3     6     1     7
 0.0029883605     3     6     1     8
 0.0605698957     3     6     2     3
 0.0119170959     3     6     2     7
 0.0012626908     3     6     2     8
 -0.0305283899     3     6     4     3
 -0.0070683377     3     6     4     7
 -0.0028053442     3     6     4     8
 -0.3060468455     3     6     6     3
 -0.0259727094     3     6     6     7
 0.0130169921     3     6     6     8
 -0.0021208334     3     6     7     1
 0.0340052541     3     6     7     2
 -0.0075439095     3     6     7     4
 0.0265124191     3     6     7     9
 0.0004175976     3     6     8     1
 -0.0000259556     3     6     8     2
 0.0001064142     3     6     8     4
 -0.0071168267     3     6     8     9
 -0.0596709102     3     6     9     3
 -0.0132109631     3     6     9     7
 -0.0099613861     3     6     9     8
 0.1531931141     3     7     1     1
 0.0123132707     3     7     1     2
 0.0021471541     3     7     1     4
 -0.0021364570     3     7     1     6
 -0.0003511671     3     7     1     9
 0.0086703267     3     7     2     1
 0.0613195081     3     7     2     2
 0.0088058286     3     7     2     4
 -0.0119170959     3     7     2     6
 -0.0124998092     3     7     2     9
 0.0031967482     3     7     4     1
 -0.0020584413     3     7     4     2
 0.0767166872     3     7     4     4
 0.0070683377     3     7     4     6
 -0.0011144213     3     7     4     9
 0.0791305321     3     7     5     5
 -0.0043605494     3     7     6     1
 0.0213278270     3     7     6     2
 -0.0000116843     3     7     6     4
 0.0259727094     3     7     6     6
 0.0396359078     3     7     6     9
 -0.2702290630     3     7     7     3
 0.0186823299     3     7     7     8
 -0.0461716995     3     7     8     3
 0.0290152740     3     7     8     8
 -0.0023774019     3     7     9     1
 0.0021393318     3     7     9     2
 0.0018052256     3     7     9     4
 0.0132109631     3     7     9     6
 0.0321952907     3     7     9     9
 0.0906899517     3     8     1     1
 0.0111514241     3     8     1     2
 -0.0023884028     3     8     1     4
 -0.0029883605     3     8     1     6
 -0.0016128257     3     8     1     9
 0.0071602770     3     8     2     1
 0.0167036668     3     8     2     2
 0.0273211726     3     8     2     4
 -0.0012626908     3     8     2     6
 0.0005688910     3     8     2     9
 0.0023900276     3     8     4     1
 -0.0066653185     3     8     4     2
 0.0407208425     3     8     4     4
 0.0028053442     3     8     4     6
 -0.0181637770     3     8     4     9
 0.0321074405     3     8     5     5
 -0.0026200723     3     8     6     1
 -0.0019275657     3     8     6     2
 0.0031733411     3     8     6     4
 -0.0130169921     3     8     6     6
 0.0025947648     3     8     6     9
 -0.0461716995     3     8     7     3
 -0.0186823299     3     8     7     7
 -0.3800625398     3     8     8     3
 -0.0290152740     3     8     8     7
 -0.0045026518     3     8     9     1
 0.0289432505     3     8     9     2
 -0.0095793083     3     8     9     4
 0.0099613861     3     8     9     6
 0.0047847101     3     8     9     9
 0.0002601357     3     9     1     3
 0.0003511671     3     9     1     7
 0.0016128257     3     9     1     8
 0.0670550615     3     9     2     3
 0.0124998092     3     9     2     7
 -0.0005688910     3     9     2     8
 -0.0222617420     3     9     4     3
 0.0011144213     3     9     4     7
 0.0181637770     3     9     4     8
 -0.0596709102     3     9     6     3
 -0.0396359078     3     9     6     7
 -0.0025947648     3     9     6     8
 -0.0019683662     3     9     7     1
 0.0161224541     3     9     7     2
 0.0026553630     3     9     7     4
 -0.0265124191     3     9     7     6
 -0.0028836213     3     9     8     1
 0.0293879288     3     9     8     2
 0.0092352609     3     9     8     4
 0.0071168267     3     9     8     6
 -0.3902297570     3     9     9     3
 -0.0321952907     3     9     9     7
 -0.0047847101     3     9     9     8
 -0.0677074521     4     1     1     2
 -0.9500617072     4     1     1     4
 -0.0670501367     4     1     1     6
 -0.0544355538     4     1     1     9
 0.0070403245     4     1     2     2
 -0.0359738705     4     1     2     4
 -0.0064871661     4     1     2     6
 -0.0064749163     4     1     2     9
 0.0106063864     4     1     3     3
 0.0031967482     4     1     3     7
 0.0023900276     4     1     3     8
 0.0137373348     4     1     5     5
 -0.0002982776     4     1     6     2
 0.0090506660     4     1     6     4
 0.0040177568     4     1     6     6
 0.0029102821     4     1     6     9
 0.0021471541     4     1     7     3
 0.0027181133     4     1     7     7
 0.0028562849     4     1     7     8
 -0.0023884028     4     1     8     3
 0.0011281953     4     1     8     7
 0.0027912665     4     1     8     8
 0.0005344492     4     1     9     2
 0.0095269912     4     1     9     4
 0.0028086971     4     1     9     6
 0.0059211639     4     1     9     9
 0.0677074521     4     2     1     1
 -0.0359738705     4     2     1     4
 -0.0068454685     4     2     1     6
 -0.0076077216     4     2     1     9
 -0.0070403245     4     2     2     1
 -0.5509376534     4     2     2     4
 -0.0278907106     4     2     2     6
 -0.0170150706     4     2     2     9
 0.0018516257     4     2     3     3
 -0.0020584413     4     2     3     7
 -0.0066653185     4     2     3     8
 0.0045352759     4     2     5     5
 0.0002982776     4     2     6     1
 0.0599447372     4     2     6     4
 -0.0107382848     4     2     6     6
 0.0026762628     4     2     6     9
 0.0088058286     4     2     7     3
 -0.0124960725     4     2     7     7
 -0.0082296834     4     2     7     8
 0.0273211726     4     2     8     3
 -0.0023684899     4     2     8     7
 -0.0052957731     4     2     8     8
 -0.0005344492     4     2     9     1
 0.0365262199     4     2     9     4
 0.0030469839     4     2     9     6
 -0.0260563181     4     2     9     9
 0.0012674874     4     3     1     7
 0.0049170405     4     3     1     8
 -0.0105729515     4     3     2     7
 -0.0331839738     4     3     2     8
 -0.0106063864     4     3     3     1
 -0.0018516257     4     3     3     2
 -0.5622664719     4     3     3     4
 -0.0305283899     4     3     3     6
 -0.0222617420     4     3     3     9
 0.0075439095     4     3     6     7
 -0.0001064142     4     3     6     8
 -0.0021471541     4     3     7     1
 -0.0088058286     4     3     7     2
 -0.0767166872     4     3     7     4
 0.0000116843     4     3     7     6
 -0.0018052256     4     3     7     9
 0.0023884028     4     3     8     1
 -0.0273211726     4     3     8     2
 -0.0407208425     4     3     8     4
 -0.0031733411     4     3     8     6
 0.0095793083     4     3     8     9
 -0.0026553630     4     3     9     7
 -0.0092352609     4     3     9     8
 0.9500617072     4     4     1     1
 0.0359738705     4     4     1     2
 -0.0090506660     4     4     1     6
 -0.0095269912     4     4     1     9
 0.0359738705     4     4     2     1
 0.5509376534     4     4     2     2
 -0.0599447372     4     4     2     6
 -0.0365262199     4     4     2     9
 0.5622664719     4     4     3     3
 0.0767166872     4     4     3     7
 0.0407208425     4     4     3     8
 0.6064557355     4     4     5     5
 -0.0090506660     4     4     6     1
 -0.0599447372     4     4     6     2
 0.2923153048     4     4     6     6
 0.0561910866     4     4     6     9
 0.0767166872     4     4     7     3
 0.2738735626     4     4     7     7
 0.0529089613     4     4     7     8
 0.0407208425     4     4     8     3
 0.0529089613     4     4     8     7
 0.3761899628     4     4     8     8
 -0.0095269912     4     4     9     1
 -0.0365262199     4     4     9     2
 0.0561910866     4     4     9     6
 0.3782376290     4     4     9     9
 -0.0137373348     4     5     5     1
 -0.0045352759     4     5     5     2
 -0.6064557355     4     5     5     4
 -0.0369758003     4     5     5     6
 -0.0270716127     4     5     5     9
 0.0670501367     4     6     1     1
 0.0068454685     4     6     1     2
 0.0090506660     4     6     1     4
 0.0001430513     4     6     1     9
 0.0064871661     4     6     2     1
 0.0278907106     4     6     2     2
 0.0599447372     4     6     2     4
 -0.0001675156     4     6     2     9
 0.0305283899     4     6     3     3
 0.0070683377     4     6     3     7
 0.0028053442     4     6     3     8
 0.0369758003     4     6     5     5
 -0.0040177568     4     6     6     1
 0.0107382848     4     6     6     2
 -0.2923153048     4     6     6     4
 0.0057700838     4     6     6     9
 -0.0000116843     4     6     7     3
 0.0079520794     4     6     7     7
 0.0256321096     4     6     7     8
 0.0031733411     4     6     8     3
 0.0011950179     4     6     8     7
 0.0097987690     4     6     8     8
 -0.0028086971     4     6     9     1
 -0.0030469839     4     6     9     2
 -0.0561910866     4     6     9     4
 0.0036910122     4     6     9     9
 -0.0012674874     4     7     1     3
 0.0017048893     4     7     1     8
 0.0105729515     4     7     2     3
 -0.0053233739     4     7     2     8
 -0.0031967482     4     7     3     1
 0.0020584413     4     7     3     2
 -0.0767166872     4     7     3     4
 -0.0070683377     4     7     3     6
 0.0011144213     4     7     3     9
 -0.0075439095     4     7     6     3
 0.0244164608     4     7     6     8
 -0.0027181133     4     7     7     1
 0.0124960725     4     7     7     2
 -0.2738735626     4     7     7     4
 -0.0079520794     4     7     7     6
 0.0014701581     4     7     7     9
 -0.0011281953     4     7     8     1
 0.0023684899     4     7     8     2
 -0.0529089613     4     7     8     4
 -0.0011950179     4     7     8     6
 -0.0070672620     4     7     8     9
 0.0026553630     4     7     9     3
 0.0010979882     4     7     9     8
 -0.0049170405     4     8     1     3
 -0.0017048893     4     8     1     7
 0.0331839738     4     8     2     3
 0.0053233739     4     8     2     7
 -0.0023900276     4     8     3     1
 0.0066653185     4     8     3     2