&FCI NORB=  7,NELEC= 10,MS2=0,
 ORBSYM=1,1,1,1,1,1,1
 ISYM=1,
&END
 0.9852272644     1     1     2     2
 -0.0663957305     1     1     2     4
 -0.0937711512     1     1     2     6
 0.8731464738     1     1     3     3
 -0.1000956776     1     1     3     7
 -0.0663957305     1     1     4     2
 0.9489623148     1     1     4     4
 -0.0482986165     1     1     4     6
 0.9910664641     1     1     5     5
 -0.0937711512     1     1     6     2
 -0.0482986165     1     1     6     4
 0.2794192173     1     1     6     6
 -0.1000956776     1     1     7     3
 0.2408336378     1     1     7     7
 -0.9852272644     1     2     2     1
 0.0069980293     1     2     2     4
 -0.0006776810     1     2     2     6
 0.0310467643     1     2     3     3
 -0.0079422846     1     2     3     7
 0.0663957305     1     2     4     1
 0.0356878198     1     2     4     4
 -0.0050853269     1     2     4     6
 0.0402521321     1     2     5     5
 0.0937711512     1     2     6     1
 -0.0047405675     1     2     6     4
 0.0010679774     1     2     6     6
 -0.0056769338     1     2     7     3
 0.0021455096     1     2     7     7
 -0.0016343693     1     3     2     7
 -0.8731464738     1     3     3     1
 -0.0310467643     1     3     3     2
 0.0105997576     1     3     3     4
 0.0035749855     1     3     3     6
 -0.0006776250     1     3     4     7
 -0.0015175050     1     3     6     7
 0.1000956776     1     3     7     1
 0.0056769338     1     3     7     2
 -0.0020444893     1     3     7     4
 -0.0026128576     1     3     7     6
 0.0663957305     1     4     2     1
 -0.0069980293     1     4     2     2
 0.0001407363     1     4     2     6
 -0.0105997576     1     4     3     3
 0.0015004018     1     4     3     7
 -0.9489623148     1     4     4     1
 -0.0356878198     1     4     4     2
 0.0067934633     1     4     4     6
 -0.0135493878     1     4     5     5
 0.0482986165     1     4     6     1
 0.0047405675     1     4     6     2
 -0.0025828735     1     4     6     6
 0.0020444893     1     4     7     3
 -0.0014585648     1     4     7     7
 -0.9910664641     1     5     5     1
 -0.0402521321     1     5     5     2
 0.0135493878     1     5     5     4
 0.0063222807     1     5     5     6
 0.0937711512     1     6     2     1
 0.0006776810     1     6     2     2
 -0.0001407363     1     6     2     4
 -0.0035749855     1     6     3     3
 0.0010477774     1     6     3     7
 0.0482986165     1     6     4     1
 0.0050853269     1     6     4     2
 -0.0067934633     1     6     4     4
 -0.0063222807     1     6     5     5
 -0.2794192173     1     6     6     1
 -0.0010679774     1     6     6     2
 0.0025828735     1     6     6     4
 0.0026128576     1     6     7     3
 -0.0006567600     1     6     7     7
 0.0016343693     1     7     2     3
 0.1000956776     1     7     3     1
 0.0079422846     1     7     3     2
 -0.0015004018     1     7     3     4
 -0.0010477774     1     7     3     6
 0.0006776250     1     7     4     3
 0.0015175050     1     7     6     3
 -0.2408336378     1     7     7     1
 -0.0021455096     1     7     7     2
 0.0014585648     1     7     7     4
 0.0006567600     1     7     7     6
 -0.9852272644     2     1     1     2
 0.0663957305     2     1     1     4
 0.0937711512     2     1     1     6
 0.0310467643     2     1     3     3
 -0.0056769338     2     1     3     7
 0.0069980293     2     1     4     2
 0.0356878198     2     1     4     4
 -0.0047405675     2     1     4     6
 0.0402521321     2     1     5     5
 -0.0006776810     2     1     6     2
 -0.0050853269     2     1     6     4
 0.0010679774     2     1     6     6
 -0.0079422846     2     1     7     3
 0.0021455096     2     1     7     7
 0.9852272644     2     2     1     1
 -0.0069980293     2     2     1     4
 0.0006776810     2     2     1     6
 0.5291518670     2     2     3     3
 -0.0432316270     2     2     3     7
 -0.0069980293     2     2     4     1
 0.5499060488     2     2     4     4
 -0.0208398628     2     2     4     6
 0.5750225950     2     2     5     5
 0.0006776810     2     2     6     1
 -0.0208398628     2     2     6     4
 0.2555795386     2     2     6     6
 -0.0432316270     2     2     7     3
 0.2242299114     2     2     7     7
 0.0016343693     2     3     1     7
 -0.0310467643     2     3     3     1
 -0.5291518670     2     3     3     2
 0.0016275981     2     3     3     4
 0.0443659172     2     3     3     6
 0.0052513860     2     3     4     7
 0.0246644748     2     3     6     7
 0.0079422846     2     3     7     1
 0.0432316270     2     3     7     2
 0.0013263642     2     3     7     4
 0.0180719428     2     3     7     6
 -0.0663957305     2     4     1     1
 0.0069980293     2     4     1     2
 -0.0001407363     2     4     1     6
 -0.0016275981     2     4     3     3
 0.0041053410     2     4     3     7
 -0.0356878198     2     4     4     1
 -0.5499060488     2     4     4     2
 0.0442129940     2     4     4     6
 -0.0039789040     2     4     5     5
 0.0050853269     2     4     6     1
 0.0208398628     2     4     6     2
 0.0100941408     2     4     6     6
 -0.0013263642     2     4     7     3
 0.0092084417     2     4     7     7
 -0.0402521321     2     5     5     1
 -0.5750225950     2     5     5     2
 0.0039789040     2     5     5     4
 0.0445700459     2     5     5     6
 -0.0937711512     2     6     1     1
 -0.0006776810     2     6     1     2
 0.0001407363     2     6     1     4
 -0.0443659172     2     6     3     3
 0.0062692451     2     6     3     7
 0.0047405675     2     6     4     1
 0.0208398628     2     6     4     2
 -0.0442129940     2     6     4     4
 -0.0445700459     2     6     5     5
 -0.0010679774     2     6     6     1
 -0.2555795386     2     6     6     2
 -0.0100941408     2     6     6     4
 -0.0180719428     2     6     7     3
 -0.0031070826     2     6     7     7
 -0.0016343693     2     7     1     3
 0.0056769338     2     7     3     1
 0.0432316270     2     7     3     2
 -0.0041053410     2     7     3     4
 -0.0062692451     2     7     3     6
 -0.0052513860     2     7     4     3
 -0.0246644748     2     7     6     3
 -0.0021455096     2     7     7     1
 -0.2242299114     2     7     7     2
 -0.0092084417     2     7     7     4
 0.0031070826     2     7     7     6
 -0.8731464738     3     1     1     3
 0.1000956776     3     1     1     7
 -0.0310467643     3     1     2     3
 0.0056769338     3     1     2     7
 0.0105997576     3     1     4     3
 -0.0020444893     3     1     4     7
 0.0035749855     3     1     6     3
 -0.0026128576     3     1     6     7
 -0.0016343693     3     1     7     2
 -0.0006776250     3     1     7     4
 -0.0015175050     3     1     7     6
 -0.0310467643     3     2     1     3
 0.0079422846     3     2     1     7
 -0.5291518670     3     2     2     3
 0.0432316270     3     2     2     7
 0.0016275981     3     2     4     3
 0.0013263642     3     2     4     7
 0.0443659172     3     2     6     3
 0.0180719428     3     2     6     7
 0.0016343693     3     2     7     1
 0.0052513860     3     2     7     4
 0.0246644748     3     2     7     6
 0.8731464738     3     3     1     1
 0.0310467643     3     3     1     2
 -0.0105997576     3     3     1     4
 -0.0035749855     3     3     1     6
 0.0310467643     3     3     2     1
 0.5291518670     3     3     2     2
 -0.0016275981     3     3     2     4
 -0.0443659172     3     3     2     6
 -0.0105997576     3     3     4     1
 -0.0016275981     3     3     4     2
 0.5605317193     3     3     4     4
 -0.0239659961     3     3     4     6
 0.5817865161     3     3     5     5
 -0.0035749855     3     3     6     1
 -0.0443659172     3     3     6     2
 -0.0239659961     3     3     6     4
 0.2579278749     3     3     6     6
 0.2196243778     3     3     7     7
 0.0105997576     3     4     1     3
 -0.0015004018     3     4     1     7
 0.0016275981     3     4     2     3
 -0.0041053410     3     4     2     7
 -0.5605317193     3     4     4     3
 0.0526660459     3     4     4     7
 0.0239659961     3     4     6     3
 0.0017251790     3     4     6     7
 0.0006776250     3     4     7     1
 -0.0052513860     3     4     7     2
 0.0059505553     3     4     7     6
 -0.5817865161     3     5     5     3
 0.0544744350     3     5     5     7
 0.0035749855     3     6     1     3
 -0.0010477774     3     6     1     7
 0.0443659172     3     6     2     3
 -0.0062692451     3     6     2     7
 0.0239659961     3     6     4     3
 -0.0039044804     3     6     4     7
 -0.2579278749     3     6     6     3
 0.0143195835     3     6     6     7
 0.0015175050     3     6     7     1
 -0.0246644748     3     6     7     2
 -0.0059505553     3     6     7     4
 -0.1000956776     3     7     1     1
 -0.0079422846     3     7     1     2
 0.0015004018     3     7     1     4
 0.0010477774     3     7     1     6
 -0.0056769338     3     7     2     1
 -0.0432316270     3     7     2     2
 0.0041053410     3     7     2     4
 0.0062692451     3     7     2     6
 0.0020444893     3     7     4     1
 -0.0013263642     3     7     4     2
 -0.0526660459     3     7     4     4
 0.0039044804     3     7     4     6
 -0.0544744350     3     7     5     5
 0.0026128576     3     7     6     1
 -0.0180719428     3     7     6     2
 -0.0017251790     3     7     6     4
 -0.0143195835     3     7     6     6
 -0.2196243778     3     7     7     3
 0.0663957305     4     1     1     2
 -0.9489623148     4     1     1     4
 0.0482986165     4     1     1     6
 -0.0069980293     4     1     2     2
 -0.0356878198     4     1     2     4
 0.0047405675     4     1     2     6
 -0.0105997576     4     1     3     3
 0.0020444893     4     1     3     7
 -0.0135493878     4     1     5     5
 0.0001407363     4     1     6     2
 0.0067934633     4     1     6     4
 -0.0025828735     4     1     6     6
 0.0015004018     4     1     7     3
 -0.0014585648     4     1     7     7
 -0.0663957305     4     2     1     1
 -0.0356878198     4     2     1     4
 0.0050853269     4     2     1     6
 0.0069980293     4     2     2     1
 -0.5499060488     4     2     2     4
 0.0208398628     4     2     2     6
 -0.0016275981     4     2     3     3
 -0.0013263642     4     2     3     7
 -0.0039789040     4     2     5     5
 -0.0001407363     4     2     6     1
 0.0442129940     4     2     6     4
 0.0100941408     4     2     6     6
 0.0041053410     4     2     7     3
 0.0092084417     4     2     7     7
 0.0006776250     4     3     1     7
 -0.0052513860     4     3     2     7
 0.0105997576     4     3     3     1
 0.0016275981     4     3     3     2
 -0.5605317193     4     3     3     4
 0.0239659961     4     3     3     6
 0.0059505553     4     3     6     7
 -0.0015004018     4     3     7     1
 -0.0041053410     4     3     7     2
 0.0526660459     4     3     7     4
 0.0017251790     4     3     7     6
 0.9489623148     4     4     1     1
 0.0356878198     4     4     1     2
 -0.0067934633     4     4     1     6
 0.0356878198     4     4     2     1
 0.5499060488     4     4     2     2
 -0.0442129940     4     4     2     6
 0.5605317193     4     4     3     3
 -0.0526660459     4     4     3     7
 0.5990514314     4     4     5     5
 -0.0067934633     4     4     6     1
 -0.0442129940     4     4     6     2
 0.2468940147     4     4     6     6
 -0.0526660459     4     4     7     3
 0.2174653026     4     4     7     7
 0.0135493878     4     5     5     1
 0.0039789040     4     5     5     2
 -0.5990514314     4     5     5     4
 0.0277687807     4     5     5     6
 -0.0482986165     4     6     1     1
 -0.0050853269     4     6     1     2
 0.0067934633     4     6     1     4
 -0.0047405675     4     6     2     1
 -0.0208398628     4     6     2     2
 0.0442129940     4     6     2     4
 -0.0239659961     4     6     3     3
 0.0039044804     4     6     3     7
 -0.0277687807     4     6     5     5
 0.0025828735     4     6     6     1
 -0.0100941408     4     6     6     2
 -0.2468940147     4     6     6     4
 -0.0017251790     4     6     7     3
 -0.0022614442     4     6     7     7
 -0.0006776250     4     7     1     3
 0.0052513860     4     7     2     3
 -0.0020444893     4     7     3     1
 0.0013263642     4     7     3     2
 0.0526660459     4     7     3     4
 -0.0039044804     4     7     3     6
 -0.0059505553     4     7     6     3
 0.0014585648     4     7     7     1
 -0.0092084417     4     7     7     2
 -0.2174653026     4     7     7     4
 0.0022614442     4     7     7     6
 -0.9910664641     5     1     1     5
 -0.0402521321     5     1     2     5
 0.0135493878     5     1     4     5
 0.0063222807     5     1     6     5
 -0.0402521321     5     2     1     5
 -0.5750225950     5     2     2     5
 0.0039789040     5     2     4     5
 0.0445700459     5     2     6     5
 -0.5817865161     5     3     3     5
 0.0544744350     5     3     7     5
 0.0135493878     5     4     1     5
 0.0039789040     5     4     2     5
 -0.5990514314     5     4     4     5
 0.0277687807     5     4     6     5
 0.9910664641     5     5     1     1
 0.0402521321     5     5     1     2
 -0.0135493878     5     5     1     4
 -0.0063222807     5     5     1     6
 0.0402521321     5     5     2     1
 0.5750225950     5     5     2     2
 -0.0039789040     5     5     2     4
 -0.0445700459     5     5     2     6
 0.5817865161     5     5     3     3
 -0.0544744350     5     5     3     7
 -0.0135493878     5     5     4     1
 -0.0039789040     5     5     4     2
 0.5990514314     5     5     4     4
 -0.0277687807     5     5     4     6
 -0.0063222807     5     5     6     1
 -0.0445700459     5     5     6     2
 -0.0277687807     5     5     6     4
 0.2532237957     5     5     6     6
 -0.0544744350     5     5     7     3
 0.2198234977     5     5     7     7
 0.0063222807     5     6     1     5
 0.0445700459     5     6     2     5
 0.0277687807     5     6     4     5
 -0.2532237957     5     6     6     5
 0.0544744350     5     7     3     5
 -0.2198234977     5     7     7     5
 0.0937711512     6     1     1     2
 0.0482986165     6     1     1     4
 -0.2794192173     6     1     1     6
 0.0006776810     6     1     2     2
 0.0050853269     6     1     2     4
 -0.0010679774     6     1     2     6
 -0.0035749855     6     1     3     3
 0.0026128576     6     1     3     7
 -0.0001407363     6     1     4     2
 -0.0067934633     6     1     4     4
 0.0025828735     6     1     4     6
 -0.0063222807     6     1     5     5
 0.0010477774     6     1     7     3
 -0.0006567600     6     1     7     7
 -0.0937711512     6     2     1     1
 0.0047405675     6     2     1     4
 -0.0010679774     6     2     1     6
 -0.0006776810     6     2     2     1
 0.0208398628     6     2     2     4
 -0.2555795386     6     2     2     6
 -0.0443659172     6     2     3     3
 -0.0180719428     6     2     3     7
 0.0001407363     6     2     4     1
 -0.0442129940     6     2     4     4
 -0.0100941408     6     2     4     6
 -0.0445700459     6     2     5     5
 0.0062692451     6     2     7     3
 -0.0031070826     6     2     7     7
 0.0015175050     6     3     1     7
 -0.0246644748     6     3     2     7
 0.0035749855     6     3     3     1
 0.0443659172     6     3     3     2
 0.0239659961     6     3     3     4
 -0.2579278749     6     3     3     6
 -0.0059505553     6     3     4     7
 -0.0010477774     6     3     7     1
 -0.0062692451     6     3     7     2
 -0.0039044804     6     3     7     4
 0.0143195835     6     3     7     6
 -0.0482986165     6     4     1     1
 -0.0047405675     6     4     1     2
 0.0025828735     6     4     1     6
 -0.0050853269     6     4     2     1
 -0.0208398628     6     4     2     2
 -0.0100941408     6     4     2     6
 -0.0239659961     6     4     3     3
 -0.0017251790     6     4     3     7
 0.0067934633     6     4     4     1
 0.0442129940     6     4     4     2
 -0.2468940147     6     4     4     6
 -0.0277687807     6     4     5     5
 0.0039044804     6     4     7     3
 -0.0022614442     6     4     7     7
 0.0063222807     6     5     5     1
 0.0445700459     6     5     5     2
 0.0277687807     6     5     5     4
 -0.2532237957     6     5     5     6
 0.2794192173     6     6     1     1
 0.0010679774     6     6     1     2
 -0.0025828735     6     6     1     4
 0.0010679774     6     6     2     1
 0.2555795386     6     6     2     2
 0.0100941408     6     6     2     4
 0.2579278749     6     6     3     3
 -0.0143195835     6     6     3     7
 -0.0025828735     6     6     4     1
 0.0100941408     6     6     4     2
 0.2468940147     6     6     4     4
 0.2532237957     6     6     5     5
 -0.0143195835     6     6     7     3
 0.1530656371     6     6     7     7
 -0.0015175050     6     7     1     3
 0.0246644748     6     7     2     3
 -0.0026128576     6     7     3     1
 0.0180719428     6     7     3     2
 0.0017251790     6     7     3     4
 0.0143195835     6     7     3     6
 0.0059505553     6     7     4     3
 0.0006567600     6     7     7     1
 0.0031070826     6     7     7     2
 0.0022614442     6     7     7     4
 -0.1530656371     6     7     7     6
 0.1000956776     7     1     1     3
 -0.2408336378     7     1     1     7
 0.0079422846     7     1     2     3
 -0.0021455096     7     1     2     7
 0.0016343693     7     1     3     2
 0.0006776250     7     1     3     4
 0.0015175050     7     1     3     6
 -0.0015004018     7     1     4     3
 0.0014585648     7     1     4     7
 -0.0010477774     7     1     6     3
 0.0006567600     7     1     6     7
 0.0056769338     7     2     1     3
 -0.0021455096     7     2     1     7
 0.0432316270     7     2     2     3
 -0.2242299114     7     2     2     7
 -0.0016343693     7     2     3     1
 -0.0052513860     7     2     3     4
 -0.0246644748     7     2     3     6
 -0.0041053410     7     2     4     3
 -0.0092084417     7     2     4     7
 -0.0062692451     7     2     6     3
 0.0031070826     7     2     6     7
 -0.1000956776     7     3     1     1
 -0.0056769338     7     3     1     2
 0.0020444893     7     3     1     4
 0.0026128576     7     3     1     6
 -0.0079422846     7     3     2     1
 -0.0432316270     7     3     2     2
 -0.0013263642     7     3     2     4
 -0.0180719428     7     3     2     6
 -0.2196243778     7     3     3     7
 0.0015004018     7     3     4     1
 0.0041053410     7     3     4     2
 -0.0526660459     7     3     4     4
 -0.0017251790     7     3     4     6
 -0.0544744350     7     3     5     5
 0.0010477774     7     3     6     1
 0.0062692451     7     3     6     2
 0.0039044804     7     3     6     4
 -0.0143195835     7     3     6     6
 -0.0020444893     7     4     1     3
 0.0014585648     7     4     1     7
 0.0013263642     7     4     2     3
 -0.0092084417     7     4     2     7
 -0.0006776250     7     4     3     1
 0.0052513860     7     4     3     2
 -0.0059505553     7     4     3     6
 0.0526660459     7     4     4     3
 -0.2174653026     7     4     4     7
 -0.0039044804     7     4     6     3
 0.0022614442     7     4     6     7
 0.0544744350     7     5     5     3
 -0.2198234977     7     5     5     7
 -0.0026128576     7     6     1     3
 0.0006567600     7     6     1     7
 0.0180719428     7     6     2     3
 0.0031070826     7     6     2     7
 -0.0015175050     7     6     3     1
 0.0246644748     7     6     3     2
 0.0059505553     7     6     3     4
 0.0017251790     7     6     4     3
 0.0022614442     7     6     4     7
 0.0143195835     7     6     6     3
 -0.1530656371     7     6     6     7
 0.2408336378     7     7     1     1
 0.0021455096     7     7     1     2
 -0.0014585648     7     7     1     4
 -0.0006567600     7     7     1     6
 0.0021455096     7     7     2     1
 0.2242299114     7     7     2     2
 0.0092084417     7     7     2     4
 -0.0031070826     7     7     2     6
 0.2196243778     7     7     3     3
 -0.0014585648     7     7     4     1
 0.0092084417     7     7     4     2
 0.2174653026     7     7     4     4
 -0.0022614442     7     7     4     6
 0.2198234977     7     7     5     5
 -0.0006567600     7     7     6     1
 -0.0031070826     7     7     6     2
 -0.0022614442     7     7     6     4
 0.1530656371     7     7     6     6
0.0 0 0 0 0
 0.9852272644     1     1     2     2
 -0.0663957305     1     1     2     4
 -0.0937711512     1     1     2     6
 0.8731464738     1     1     3     3
 -0.1000956776     1     1     3     7
 -0.0663957305     1     1     4     2
 0.9489623148     1     1     4     4
 -0.0482986165     1     1     4     6
 0.9910664641     1     1     5     5
 -0.0937711512     1     1     6     2
 -0.0482986165     1     1     6     4
 0.2794192173     1     1     6     6
 -0.1000956776     1     1     7     3
 0.2408336378     1     1     7     7
 -0.9852272644     1     2     2     1
 0.0069980293     1     2     2     4
 -0.0006776810     1     2     2     6
 0.0310467643     1     2     3     3
 -0.0079422846     1     2     3     7
 0.0663957305     1     2     4     1
 0.0356878198     1     2     4     4
 -0.0050853269     1     2     4     6
 0.0402521321     1     2     5     5
 0.0937711512     1     2     6     1
 -0.0047405675     1     2     6     4
 0.0010679774     1     2     6     6
 -0.0056769338     1     2     7     3
 0.0021455096     1     2     7     7
 -0.0016343693     1     3     2     7
 -0.8731464738     1     3     3     1
 -0.0310467643     1     3     3     2
 0.0105997576     1     3     3     4
 0.0035749855     1     3     3     6
 -0.0006776250     1     3     4     7
 -0.0015175050     1     3     6     7
 0.1000956776     1     3     7     1
 0.0056769338     1     3     7     2
 -0.0020444893     1     3     7     4
 -0.0026128576     1     3     7     6
 0.0663957305     1     4     2     1
 -0.0069980293     1     4     2     2
 0.0001407363     1     4     2     6
 -0.0105997576     1     4     3     3
 0.0015004018     1     4     3     7
 -0.9489623148     1     4     4     1
 -0.0356878198     1     4     4     2
 0.0067934633     1     4     4     6
 -0.0135493878     1     4     5     5
 0.0482986165     1     4     6     1
 0.0047405675     1     4     6     2
 -0.0025828735     1     4     6     6
 0.0020444893     1     4     7     3
 -0.0014585648     1     4     7     7
 -0.9910664641     1     5     5     1
 -0.0402521321     1     5     5     2
 0.0135493878     1     5     5     4
 0.0063222807     1     5     5     6
 0.0937711512     1     6     2     1
 0.0006776810     1     6     2     2
 -0.0001407363     1     6     2     4
 -0.0035749855     1     6     3     3
 0.0010477774     1     6     3     7
 0.0482986165     1     6     4     1
 0.0050853269     1     6     4     2
 -0.0067934633     1     6     4     4
 -0.0063222807     1     6     5     5
 -0.2794192173     1     6     6     1
 -0.0010679774     1     6     6     2
 0.0025828735     1     6     6     4
 0.0026128576     1     6     7     3
 -0.0006567600     1     6     7     7
 0.0016343693     1     7     2     3
 0.1000956776     1     7     3     1
 0.0079422846     1     7     3     2
 -0.0015004018     1     7     3     4
 -0.0010477774     1     7     3     6
 0.0006776250     1     7     4     3
 0.0015175050     1     7     6     3
 -0.2408336378     1     7     7     1
 -0.0021455096     1     7     7     2
 0.0014585648     1     7     7     4
 0.0006567600     1     7     7     6
 -0.9852272644     2     1     1     2
 0.0663957305     2     1     1     4
 0.0937711512     2     1     1     6
 0.0310467643     2     1     3     3
 -0.0056769338     2     1     3     7
 0.0069980293     2     1     4     2
 0.0356878198     2     1     4     4
 -0.0047405675     2     1     4     6
 0.0402521321     2     1     5     5
 -0.0006776810     2     1     6     2
 -0.0050853269     2     1     6     4
 0.0010679774     2     1     6     6
 -0.0079422846     2     1     7     3
 0.0021455096     2     1     7     7
 0.9852272644     2     2     1     1
 -0.0069980293     2     2     1     4
 0.0006776810     2     2     1     6
 0.5291518670     2     2     3     3
 -0.0432316270     2     2     3     7
 -0.0069980293     2     2     4     1
 0.5499060488     2     2     4     4
 -0.0208398628     2     2     4     6
 0.5750225950     2     2     5     5
 0.0006776810     2     2     6     1
 -0.0208398628     2     2     6     4
 0.2555795386     2     2     6     6
 -0.0432316270     2     2     7     3
 0.2242299114     2     2     7     7
 0.0016343693     2     3     1     7
 -0.0310467643     2     3     3     1
 -0.5291518670     2     3     3     2
 0.0016275981     2     3     3     4
 0.0443659172     2     3     3     6
 0.0052513860     2     3     4     7
 0.0246644748     2     3     6     7
 0.0079422846     2     3     7     1
 0.0432316270     2     3     7     2
 0.0013263642     2     3     7     4
 0.0180719428     2     3     7     6
 -0.0663957305     2     4     1     1
 0.0069980293     2     4     1     2
 -0.0001407363     2     4     1     6
 -0.0016275981     2     4     3     3
 0.0041053410     2     4     3     7
 -0.0356878198     2     4     4     1
 -0.5499060488     2     4     4     2
 0.0442129940     2     4     4     6
 -0.0039789040     2     4     5     5
 0.0050853269     2     4     6     1
 0.0208398628     2     4     6     2
 0.0100941408     2     4     6     6
 -0.0013263642     2     4     7     3
 0.0092084417     2     4     7     7
 -0.0402521321     2     5     5     1
 -0.5750225950     2     5     5     2
 0.0039789040     2     5     5     4
 0.0445700459     2     5     5     6
 -0.0937711512     2     6     1     1
 -0.0006776810     2     6     1     2
 0.0001407363     2     6     1     4
 -0.0443659172     2     6     3     3
 0.0062692451     2     6     3     7
 0.0047405675     2     6     4     1
 0.0208398628     2     6     4     2
 -0.0442129940     2     6     4     4
 -0.0445700459     2     6     5     5
 -0.0010679774     2     6     6     1
 -0.2555795386     2     6     6     2
 -0.0100941408     2     6     6     4
 -0.0180719428     2     6     7     3
 -0.0031070826     2     6     7     7
 -0.0016343693     2     7     1     3
 0.0056769338     2     7     3     1
 0.0432316270     2     7     3     2
 -0.0041053410     2     7     3     4
 -0.0062692451     2     7     3     6
 -0.0052513860     2     7     4     3
 -0.0246644748     2     7     6     3
 -0.0021455096     2     7     7     1
 -0.2242299114     2     7     7     2
 -0.0092084417     2     7     7     4
 0.0031070826     2     7     7     6
 -0.8731464738     3     1     1     3
 0.1000956776     3     1     1     7
 -0.0310467643     3     1     2     3
 0.0056769338     3     1     2     7
 0.0105997576     3     1     4     3
 -0.0020444893     3     1     4     7
 0.0035749855     3     1     6     3
 -0.0026128576     3     1     6     7
 -0.0016343693     3     1     7     2
 -0.0006776250     3     1     7     4
 -0.0015175050     3     1     7     6
 -0.0310467643     3     2     1     3
 0.0079422846     3     2     1     7
 -0.5291518670     3     2     2     3
 0.0432316270     3     2     2     7
 0.0016275981     3     2     4     3
 0.0013263642     3     2     4     7
 0.0443659172     3     2     6     3
 0.0180719428     3     2     6     7
 0.0016343693     3     2     7     1
 0.0052513860     3     2     7     4
 0.0246644748     3     2     7     6
 0.8731464738     3     3     1     1
 0.0310467643     3     3     1     2
 -0.0105997576     3     3     1     4
 -0.0035749855     3     3     1     6
 0.0310467643     3     3     2     1
 0.5291518670     3     3     2     2
 -0.0016275981     3     3     2     4
 -0.0443659172     3     3     2     6
 -0.0105997576     3     3     4     1
 -0.0016275981     3     3     4     2
 0.5605317193     3     3     4     4
 -0.0239659961     3     3     4     6
 0.5817865161     3     3     5     5
 -0.0035749855     3     3     6     1
 -0.0443659172     3     3     6     2
 -0.0239659961     3     3     6     4
 0.2579278749     3     3     6     6
 0.2196243778     3     3     7     7
 0.0105997576     3     4     1     3
 -0.0015004018     3     4     1     7
 0.0016275981     3     4     2     3
 -0.0041053410     3     4     2     7
 -0.5605317193     3     4     4     3
 0.0526660459     3     4     4     7
 0.0239659961     3     4     6     3
 0.0017251790     3     4     6     7
 0.0006776250     3     4     7     1
 -0.0052513860     3     4     7     2
 0.0059505553     3     4     7     6
 -0.5817865161     3     5     5     3
 0.0544744350     3     5     5     7
 0.0035749855     3     6     1     3
 -0.0010477774     3     6     1     7
 0.0443659172     3     6     2     3
 -0.0062692451     3     6     2     7
 0.0239659961     3     6     4     3
 -0.0039044804     3     6     4     7
 -0.2579278749     3     6     6     3
 0.0143195835     3     6     6     7
 0.0015175050     3     6     7     1
 -0.0246644748     3     6     7     2
 -0.0059505553     3     6     7     4
 -0.1000956776     3     7     1     1
 -0.0079422846     3     7     1     2
 0.0015004018     3     7     1     4
 0.0010477774     3     7     1     6
 -0.0056769338     3     7     2     1
 -0.0432316270     3     7     2     2
 0.0041053410     3     7     2     4
 0.0062692451     3     7     2     6
 0.0020444893     3     7     4     1
 -0.0013263642     3     7     4     2
 -0.0526660459     3     7     4     4
 0.0039044804     3     7     4     6
 -0.0544744350     3     7     5     5
 0.0026128576     3     7     6     1
 -0.0180719428     3     7     6     2
 -0.0017251790     3     7     6     4
 -0.0143195835     3     7     6     6