&FCI NORB=  7,NELEC= 10,MS2=0,
 ORBSYM=1,1,1,1,1,1,1
 ISYM=1,
&END
 0.9828832405     1     1     2     2
 0.0716493478     1     1     2     4
 -0.1477105854     1     1     2     6
 0.8588725005     1     1     3     3
 -0.1795297614     1     1     3     7
 0.0716493478     1     1     4     2
 0.9526298688     1     1     4     4
 0.0804517229     1     1     4     6
 1.0053472257     1     1     5     5
 -0.1477105854     1     1     6     2
 0.0804517229     1     1     6     4
 0.3990936024     1     1     6     6
 -0.1795297614     1     1     7     3
 0.3924405713     1     1     7     7
 -0.9828832405     1     2     2     1
 -0.0068313834     1     2     2     4
 -0.0015048338     1     2     2     6
 0.0298972797     1     2     3     3
 -0.0146918102     1     2     3     7
 -0.0716493478     1     2     4     1
 0.0353812608     1     2     4     4
 0.0086434401     1     2     4     6
 0.0407938261     1     2     5     5
 0.1477105854     1     2     6     1
 0.0079784878     1     2     6     4
 0.0028802494     1     2     6     6
 -0.0106024597     1     2     7     3
 0.0073042463     1     2     7     7
 -0.0032686125     1     3     2     7
 -0.8588725005     1     3     3     1
 -0.0298972797     1     3     3     2
 -0.0104642666     1     3     3     4
 0.0048365289     1     3     3     6
 0.0017128456     1     3     4     7
 -0.0025239731     1     3     6     7
 0.1795297614     1     3     7     1
 0.0106024597     1     3     7     2
 0.0039240717     1     3     7     4
 -0.0056933363     1     3     7     6
 -0.0716493478     1     4     2     1
 0.0068313834     1     4     2     2
 0.0001307236     1     4     2     6
 0.0104642666     1     4     3     3
 -0.0023514812     1     4     3     7
 -0.9526298688     1     4     4     1
 -0.0353812608     1     4     4     2
 0.0107630513     1     4     4     6
 0.0139513293     1     4     5     5
 -0.0804517229     1     4     6     1
 -0.0079784878     1     4     6     2
 0.0054578488     1     4     6     6
 -0.0039240717     1     4     7     3
 0.0038291845     1     4     7     7
 -1.0053472257     1     5     5     1
 -0.0407938261     1     5     5     2
 -0.0139513293     1     5     5     4
 0.0102087713     1     5     5     6
 0.1477105854     1     6     2     1
 0.0015048338     1     6     2     2
 -0.0001307236     1     6     2     4
 -0.0048365289     1     6     3     3
 0.0030029348     1     6     3     7
 -0.0804517229     1     6     4     1
 -0.0086434401     1     6     4     2
 -0.0107630513     1     6     4     4
 -0.0102087713     1     6     5     5
 -0.3990936024     1     6     6     1
 -0.0028802494     1     6     6     2
 -0.0054578488     1     6     6     4
 0.0056933363     1     6     7     3
 -0.0028676215     1     6     7     7
 0.0032686125     1     7     2     3
 0.1795297614     1     7     3     1
 0.0146918102     1     7     3     2
 0.0023514812     1     7     3     4
 -0.0030029348     1     7     3     6
 -0.0017128456     1     7     4     3
 0.0025239731     1     7     6     3
 -0.3924405713     1     7     7     1
 -0.0073042463     1     7     7     2
 -0.0038291845     1     7     7     4
 0.0028676215     1     7     7     6
 -0.9828832405     2     1     1     2
 -0.0716493478     2     1     1     4
 0.1477105854     2     1     1     6
 0.0298972797     2     1     3     3
 -0.0106024597     2     1     3     7
 -0.0068313834     2     1     4     2
 0.0353812608     2     1     4     4
 0.0079784878     2     1     4     6
 0.0407938261     2     1     5     5
 -0.0015048338     2     1     6     2
 0.0086434401     2     1     6     4
 0.0028802494     2     1     6     6
 -0.0146918102     2     1     7     3
 0.0073042463     2     1     7     7
 0.9828832405     2     2     1     1
 0.0068313834     2     2     1     4
 0.0015048338     2     2     1     6
 0.5246435486     2     2     3     3
 -0.0716593153     2     2     3     7
 0.0068313834     2     2     4     1
 0.5521091044     2     2     4     4
 0.0335723128     2     2     4     6
 0.5825920922     2     2     5     5
 0.0015048338     2     2     6     1
 0.0335723128     2     2     6     4
 0.3347103720     2     2     6     6
 -0.0716593153     2     2     7     3
 0.3280775572     2     2     7     7
 0.0032686125     2     3     1     7
 -0.0298972797     2     3     3     1
 -0.5246435486     2     3     3     2
 -0.0029916291     2     3     3     4
 0.0679872574     2     3     3     6
 -0.0133312936     2     3     4     7
 0.0401884705     2     3     6     7
 0.0146918102     2     3     7     1
 0.0716593153     2     3     7     2
 -0.0019181681     2     3     7     4
 0.0229204238     2     3     7     6
 0.0716493478     2     4     1     1
 -0.0068313834     2     4     1     2
 -0.0001307236     2     4     1     6
 0.0029916291     2     4     3     3
 -0.0114622948     2     4     3     7
 -0.0353812608     2     4     4     1
 -0.5521091044     2     4     4     2
 0.0678327775     2     4     4     6
 0.0067002344     2     4     5     5
 -0.0086434401     2     4     6     1
 -0.0335723128     2     4     6     2
 -0.0120092903     2     4     6     6
 0.0019181681     2     4     7     3
 -0.0141853134     2     4     7     7
 -0.0407938261     2     5     5     1
 -0.5825920922     2     5     5     2
 -0.0067002344     2     5     5     4
 0.0661021532     2     5     5     6
 -0.1477105854     2     6     1     1
 -0.0015048338     2     6     1     2
 0.0001307236     2     6     1     4
 -0.0679872574     2     6     3     3
 0.0151368384     2     6     3     7
 -0.0079784878     2     6     4     1
 -0.0335723128     2     6     4     2
 -0.0678327775     2     6     4     4
 -0.0661021532     2     6     5     5
 -0.0028802494     2     6     6     1
 -0.3347103720     2     6     6     2
 0.0120092903     2     6     6     4
 -0.0229204238     2     6     7     3
 -0.0137023059     2     6     7     7
 -0.0032686125     2     7     1     3
 0.0106024597     2     7     3     1
 0.0716593153     2     7     3     2
 0.0114622948     2     7     3     4
 -0.0151368384     2     7     3     6
 0.0133312936     2     7     4     3
 -0.0401884705     2     7     6     3
 -0.0073042463     2     7     7     1
 -0.3280775572     2     7     7     2
 0.0141853134     2     7     7     4
 0.0137023059     2     7     7     6
 -0.8588725005     3     1     1     3
 0.1795297614     3     1     1     7
 -0.0298972797     3     1     2     3
 0.0106024597     3     1     2     7
 -0.0104642666     3     1     4     3
 0.0039240717     3     1     4     7
 0.0048365289     3     1     6     3
 -0.0056933363     3     1     6     7
 -0.0032686125     3     1     7     2
 0.0017128456     3     1     7     4
 -0.0025239731     3     1     7     6
 -0.0298972797     3     2     1     3
 0.0146918102     3     2     1     7
 -0.5246435486     3     2     2     3
 0.0716593153     3     2     2     7
 -0.0029916291     3     2     4     3
 -0.0019181681     3     2     4     7
 0.0679872574     3     2     6     3
 0.0229204238     3     2     6     7
 0.0032686125     3     2     7     1
 -0.0133312936     3     2     7     4
 0.0401884705     3     2     7     6
 0.8588725005     3     3     1     1
 0.0298972797     3     3     1     2
 0.0104642666     3     3     1     4
 -0.0048365289     3     3     1     6
 0.0298972797     3     3     2     1
 0.5246435486     3     3     2     2
 0.0029916291     3     3     2     4
 -0.0679872574     3     3     2     6
 0.0104642666     3     3     4     1
 0.0029916291     3     3     4     2
 0.5596855115     3     3     4     4
 0.0364694310     3     3     4     6
 0.5855859911     3     3     5     5
 -0.0048365289     3     3     6     1
 -0.0679872574     3     3     6     2
 0.0364694310     3     3     6     4
 0.3386931749     3     3     6     6
 0.3052791943     3     3     7     7
 -0.0104642666     3     4     1     3
 0.0023514812     3     4     1     7
 -0.0029916291     3     4     2     3
 0.0114622948     3     4     2     7
 -0.5596855115     3     4     4     3
 0.0910642027     3     4     4     7
 -0.0364694310     3     4     6     3
 0.0018220387     3     4     6     7
 -0.0017128456     3     4     7     1
 0.0133312936     3     4     7     2
 -0.0091783779     3     4     7     6
 -0.5855859911     3     5     5     3
 0.0939375010     3     5     5     7
 0.0048365289     3     6     1     3
 -0.0030029348     3     6     1     7
 0.0679872574     3     6     2     3
 -0.0151368384     3     6     2     7
 -0.0364694310     3     6     4     3
 0.0094330137     3     6     4     7
 -0.3386931749     3     6     6     3
 0.0342192564     3     6     6     7
 0.0025239731     3     6     7     1
 -0.0401884705     3     6     7     2
 0.0091783779     3     6     7     4
 -0.1795297614     3     7     1     1
 -0.0146918102     3     7     1     2
 -0.0023514812     3     7     1     4
 0.0030029348     3     7     1     6
 -0.0106024597     3     7     2     1
 -0.0716593153     3     7     2     2
 -0.0114622948     3     7     2     4
 0.0151368384     3     7     2     6
 -0.0039240717     3     7     4     1
 0.0019181681     3     7     4     2
 -0.0910642027     3     7     4     4
 -0.0094330137     3     7     4     6
 -0.0939375010     3     7     5     5
 0.0056933363     3     7     6     1
 -0.0229204238     3     7     6     2
 -0.0018220387     3     7     6     4
 -0.0342192564     3     7     6     6
 -0.3052791943     3     7     7     3
 -0.0716493478     4     1     1     2
 -0.9526298688     4     1     1     4
 -0.0804517229     4     1     1     6
 0.0068313834     4     1     2     2
 -0.0353812608     4     1     2     4
 -0.0079784878     4     1     2     6
 0.0104642666     4     1     3     3
 -0.0039240717     4     1     3     7
 0.0139513293     4     1     5     5
 0.0001307236     4     1     6     2
 0.0107630513     4     1     6     4
 0.0054578488     4     1     6     6
 -0.0023514812     4     1     7     3
 0.0038291845     4     1     7     7
 0.0716493478     4     2     1     1
 -0.0353812608     4     2     1     4
 -0.0086434401     4     2     1     6
 -0.0068313834     4     2     2     1
 -0.5521091044     4     2     2     4
 -0.0335723128     4     2     2     6
 0.0029916291     4     2     3     3
 0.0019181681     4     2     3     7
 0.0067002344     4     2     5     5
 -0.0001307236     4     2     6     1
 0.0678327775     4     2     6     4
 -0.0120092903     4     2     6     6
 -0.0114622948     4     2     7     3
 -0.0141853134     4     2     7     7
 -0.0017128456     4     3     1     7
 0.0133312936     4     3     2     7
 -0.0104642666     4     3     3     1
 -0.0029916291     4     3     3     2
 -0.5596855115     4     3     3     4
 -0.0364694310     4     3     3     6
 -0.0091783779     4     3     6     7
 0.0023514812     4     3     7     1
 0.0114622948     4     3     7     2
 0.0910642027     4     3     7     4
 0.0018220387     4     3     7     6
 0.9526298688     4     4     1     1
 0.0353812608     4     4     1     2
 -0.0107630513     4     4     1     6
 0.0353812608     4     4     2     1
 0.5521091044     4     4     2     2
 -0.0678327775     4     4     2     6
 0.5596855115     4     4     3     3
 -0.0910642027     4     4     3     7
 0.6132720019     4     4     5     5
 -0.0107630513     4     4     6     1
 -0.0678327775     4     4     6     2
 0.3222055361     4     4     6     6
 -0.0910642027     4     4     7     3
 0.3156831827     4     4     7     7
 -0.0139513293     4     5     5     1
 -0.0067002344     4     5     5     2
 -0.6132720019     4     5     5     4
 -0.0447573372     4     5     5     6
 0.0804517229     4     6     1     1
 0.0086434401     4     6     1     2
 0.0107630513     4     6     1     4
 0.0079784878     4     6     2     1
 0.0335723128     4     6     2     2
 0.0678327775     4     6     2     4
 0.0364694310     4     6     3     3
 -0.0094330137     4     6     3     7
 0.0447573372     4     6     5     5
 -0.0054578488     4     6     6     1
 0.0120092903     4     6     6     2
 -0.3222055361     4     6     6     4
 -0.0018220387     4     6     7     3
 0.0142810360     4     6     7     7
 0.0017128456     4     7     1     3
 -0.0133312936     4     7     2     3
 0.0039240717     4     7     3     1
 -0.0019181681     4     7     3     2
 0.0910642027     4     7     3     4
 0.0094330137     4     7     3     6
 0.0091783779     4     7     6     3
 -0.0038291845     4     7     7     1
 0.0141853134     4     7     7     2
 -0.3156831827     4     7     7     4
 -0.0142810360     4     7     7     6
 -1.0053472257     5     1     1     5
 -0.0407938261     5     1     2     5
 -0.0139513293     5     1     4     5
 0.0102087713     5     1     6     5
 -0.0407938261     5     2     1     5
 -0.5825920922     5     2     2     5
 -0.0067002344     5     2     4     5
 0.0661021532     5     2     6     5
 -0.5855859911     5     3     3     5
 0.0939375010     5     3     7     5
 -0.0139513293     5     4     1     5
 -0.0067002344     5     4     2     5
 -0.6132720019     5     4     4     5
 -0.0447573372     5     4     6     5
 1.0053472257     5     5     1     1
 0.0407938261     5     5     1     2
 0.0139513293     5     5     1     4
 -0.0102087713     5     5     1     6
 0.0407938261     5     5     2     1
 0.5825920922     5     5     2     2
 0.0067002344     5     5     2     4
 -0.0661021532     5     5     2     6
 0.5855859911     5     5     3     3
 -0.0939375010     5     5     3     7
 0.0139513293     5     5     4     1
 0.0067002344     5     5     4     2
 0.6132720019     5     5     4     4
 0.0447573372     5     5     4     6
 -0.0102087713     5     5     6     1
 -0.0661021532     5     5     6     2
 0.0447573372     5     5     6     4
 0.3363210222     5     5     6     6
 -0.0939375010     5     5     7     3
 0.3238458760     5     5     7     7
 0.0102087713     5     6     1     5
 0.0661021532     5     6     2     5
 -0.0447573372     5     6     4     5
 -0.3363210222     5     6     6     5
 0.0939375010     5     7     3     5
 -0.3238458760     5     7     7     5
 0.1477105854     6     1     1     2
 -0.0804517229     6     1     1     4
 -0.3990936024     6     1     1     6
 0.0015048338     6     1     2     2
 -0.0086434401     6     1     2     4
 -0.0028802494     6     1     2     6
 -0.0048365289     6     1     3     3
 0.0056933363     6     1     3     7
 -0.0001307236     6     1     4     2
 -0.0107630513     6     1     4     4
 -0.0054578488     6     1     4     6
 -0.0102087713     6     1     5     5
 0.0030029348     6     1     7     3
 -0.0028676215     6     1     7     7
 -0.1477105854     6     2     1     1
 -0.0079784878     6     2     1     4
 -0.0028802494     6     2     1     6
 -0.0015048338     6     2     2     1
 -0.0335723128     6     2     2     4
 -0.3347103720     6     2     2     6
 -0.0679872574     6     2     3     3
 -0.0229204238     6     2     3     7
 0.0001307236     6     2     4     1
 -0.0678327775     6     2     4     4
 0.0120092903     6     2     4     6
 -0.0661021532     6     2     5     5
 0.0151368384     6     2     7     3
 -0.0137023059     6     2     7     7
 0.0025239731     6     3     1     7
 -0.0401884705     6     3     2     7
 0.0048365289     6     3     3     1
 0.0679872574     6     3     3     2
 -0.0364694310     6     3     3     4
 -0.3386931749     6     3     3     6
 0.0091783779     6     3     4     7
 -0.0030029348     6     3     7     1
 -0.0151368384     6     3     7     2
 0.0094330137     6     3     7     4
 0.0342192564     6     3     7     6
 0.0804517229     6     4     1     1
 0.0079784878     6     4     1     2
 -0.0054578488     6     4     1     6
 0.0086434401     6     4     2     1
 0.0335723128     6     4     2     2
 0.0120092903     6     4     2     6
 0.0364694310     6     4     3     3
 -0.0018220387     6     4     3     7
 0.0107630513     6     4     4     1
 0.0678327775     6     4     4     2
 -0.3222055361     6     4     4     6
 0.0447573372     6     4     5     5
 -0.0094330137     6     4     7     3
 0.0142810360     6     4     7     7
 0.0102087713     6     5     5     1
 0.0661021532     6     5     5     2
 -0.0447573372     6     5     5     4
 -0.3363210222     6     5     5     6
 0.3990936024     6     6     1     1
 0.0028802494     6     6     1     2
 0.0054578488     6     6     1     4
 0.0028802494     6     6     2     1
 0.3347103720     6     6     2     2
 -0.0120092903     6     6     2     4
 0.3386931749     6     6     3     3
 -0.0342192564     6     6     3     7
 0.0054578488     6     6     4     1
 -0.0120092903     6     6     4     2
 0.3222055361     6     6     4     4
 0.3363210222     6     6     5     5
 -0.0342192564     6     6     7     3
 0.2150710270     6     6     7     7
 -0.0025239731     6     7     1     3
 0.0401884705     6     7     2     3
 -0.0056933363     6     7     3     1
 0.0229204238     6     7     3     2
 0.0018220387     6     7     3     4
 0.0342192564     6     7     3     6
 -0.0091783779     6     7     4     3
 0.0028676215     6     7     7     1
 0.0137023059     6     7     7     2
 -0.0142810360     6     7     7     4
 -0.2150710270     6     7     7     6
 0.1795297614     7     1     1     3
 -0.3924405713     7     1     1     7
 0.0146918102     7     1     2     3
 -0.0073042463     7     1     2     7
 0.0032686125     7     1     3     2
 -0.0017128456     7     1     3     4
 0.0025239731     7     1     3     6
 0.0023514812     7     1     4     3
 -0.0038291845     7     1     4     7
 -0.0030029348     7     1     6     3
 0.0028676215     7     1     6     7
 0.0106024597     7     2     1     3
 -0.0073042463     7     2     1     7
 0.0716593153     7     2     2     3
 -0.3280775572     7     2     2     7
 -0.0032686125     7     2     3     1
 0.0133312936     7     2     3     4
 -0.0401884705     7     2     3     6
 0.0114622948     7     2     4     3
 0.0141853134     7     2     4     7
 -0.0151368384     7     2     6     3
 0.0137023059     7     2     6     7
 -0.1795297614     7     3     1     1
 -0.0106024597     7     3     1     2
 -0.0039240717     7     3     1     4
 0.0056933363     7     3     1     6
 -0.0146918102     7     3     2     1
 -0.0716593153     7     3     2     2
 0.0019181681     7     3     2     4
 -0.0229204238     7     3     2     6
 -0.3052791943     7     3     3     7
 -0.0023514812     7     3     4     1
 -0.0114622948     7     3     4     2
 -0.0910642027     7     3     4     4
 -0.0018220387     7     3     4     6
 -0.0939375010     7     3     5     5
 0.0030029348     7     3     6     1
 0.0151368384     7     3     6     2
 -0.0094330137     7     3     6     4
 -0.0342192564     7     3     6     6
 0.0039240717     7     4     1     3
 -0.0038291845     7     4     1     7
 -0.0019181681     7     4     2     3
 0.0141853134     7     4     2     7
 0.0017128456     7     4     3     1
 -0.0133312936     7     4     3     2
 0.0091783779     7     4     3     6
 0.0910642027     7     4     4     3
 -0.3156831827     7     4     4     7
 0.0094330137     7     4     6     3
 -0.0142810360     7     4     6     7
 0.0939375010     7     5     5     3
 -0.3238458760     7     5     5     7
 -0.0056933363     7     6     1     3
 0.0028676215     7     6     1     7
 0.0229204238     7     6     2     3
 0.0137023059     7     6     2     7
 -0.0025239731     7     6     3     1
 0.0401884705     7     6     3     2
 -0.0091783779     7     6     3     4
 0.0018220387     7     6     4     3
 -0.0142810360     7     6     4     7
 0.0342192564     7     6     6     3
 -0.2150710270     7     6     6     7
 0.3924405713     7     7     1     1
 0.0073042463     7     7     1     2
 0.0038291845     7     7     1     4
 -0.0028676215     7     7     1     6
 0.0073042463     7     7     2     1
 0.3280775572     7     7     2     2
 -0.0141853134     7     7     2     4
 -0.0137023059     7     7     2     6
 0.3052791943     7     7     3     3
 0.0038291845     7     7     4     1
 -0.0141853134     7     7     4     2
 0.3156831827     7     7     4     4
 0.0142810360     7     7     4     6
 0.3238458760     7     7     5     5
 -0.0028676215     7     7     6     1
 -0.0137023059     7     7     6     2
 0.0142810360     7     7     6     4
 0.2150710270     7     7     6     6
0.0 0 0 0 0
 0.9828832405     1     1     2     2
 0.0716493478     1     1     2     4
 -0.1477105854     1     1     2     6
 0.8588725005     1     1     3     3
 -0.1795297614     1     1     3     7
 0.0716493478     1     1     4     2
 0.9526298688     1     1     4     4
 0.0804517229     1     1     4     6
 1.0053472257     1     1     5     5
 -0.1477105854     1     1     6     2
 0.0804517229     1     1     6     4
 0.3990936024     1     1     6     6
 -0.1795297614     1     1     7     3
 0.3924405713     1     1     7     7
 -0.9828832405     1     2     2     1
 -0.0068313834     1     2     2     4
 -0.0015048338     1     2     2     6
 0.0298972797     1     2     3     3
 -0.0146918102     1     2     3     7
 -0.0716493478     1     2     4     1
 0.0353812608     1     2     4     4
 0.0086434401     1     2     4     6
 0.0407938261     1     2     5     5
 0.1477105854     1     2     6     1
 0.0079784878     1     2     6     4
 0.0028802494     1     2     6     6
 -0.0106024597     1     2     7     3
 0.0073042463     1     2     7     7
 -0.0032686125     1     3     2     7
 -0.8588725005     1     3     3     1
 -0.0298972797     1     3     3     2
 -0.0104642666     1     3     3     4
 0.0048365289     1     3     3     6
 0.0017128456     1     3     4     7
 -0.0025239731     1     3     6     7
 0.1795297614     1     3     7     1
 0.0106024597     1     3     7     2
 0.0039240717     1     3     7     4
 -0.0056933363     1     3     7     6
 -0.0716493478     1     4     2     1
 0.0068313834     1     4     2     2
 0.0001307236     1     4     2     6
 0.0104642666     1     4     3     3
 -0.0023514812     1     4     3     7
 -0.9526298688     1     4     4     1
 -0.0353812608     1     4     4     2
 0.0107630513     1     4     4     6
 0.0139513293     1     4     5     5
 -0.0804517229     1     4     6     1
 -0.0079784878     1     4     6     2
 0.0054578488     1     4     6     6
 -0.0039240717     1     4     7     3
 0.0038291845     1     4     7     7
 -1.0053472257     1     5     5     1
 -0.0407938261     1     5     5     2
 -0.0139513293     1     5     5     4
 0.0102087713     1     5     5     6
 0.1477105854     1     6     2     1
 0.0015048338     1     6     2     2
 -0.0001307236     1     6     2     4
 -0.0048365289     1     6     3     3
 0.0030029348     1     6     3     7
 -0.0804517229     1     6     4     1
 -0.0086434401     1     6     4     2
 -0.0107630513     1     6     4     4
 -0.0102087713     1     6     5     5
 -0.3990936024     1     6     6     1
 -0.0028802494     1     6     6     2
 -0.0054578488     1     6     6     4
 0.0056933363     1     6     7     3
 -0.0028676215     1     6     7     7
 0.0032686125     1     7     2     3
 0.1795297614     1     7     3     1
 0.0146918102     1     7     3     2
 0.0023514812     1     7     3     4
 -0.0030029348     1     7     3     6
 -0.0017128456     1     7     4     3
 0.0025239731     1     7     6     3
 -0.3924405713     1     7     7     1
 -0.0073042463     1     7     7     2
 -0.0038291845     1     7     7     4
 0.0028676215     1     7     7     6
 -0.9828832405     2     1     1     2
 -0.0716493478     2     1     1     4
 0.1477105854     2     1     1     6
 0.0298972797     2     1     3     3
 -0.0106024597     2     1     3     7
 -0.0068313834     2     1     4     2
 0.0353812608     2     1     4     4
 0.0079784878     2     1     4     6
 0.0407938261     2     1     5     5
 -0.0015048338     2     1     6     2
 0.0086434401     2     1     6     4
 0.0028802494     2     1     6     6
 -0.0146918102     2     1     7     3
 0.0073042463     2     1     7     7
 0.9828832405     2     2     1     1
 0.0068313834     2     2     1     4
 0.0015048338     2     2     1     6
 0.5246435486     2     2     3     3
 -0.0716593153     2     2     3     7
 0.0068313834     2     2     4     1
 0.5521091044     2     2     4     4
 0.0335723128     2     2     4     6
 0.5825920922     2     2     5     5
 0.0015048338     2     2     6     1
 0.0335723128     2     2     6     4
 0.3347103720     2     2     6     6
 -0.0716593153     2     2     7     3
 0.3280775572     2     2     7     7
 0.0032686125     2     3     1     7
 -0.0298972797     2     3     3     1
 -0.5246435486     2     3     3     2
 -0.0029916291     2     3     3     4
 0.0679872574     2     3     3     6
 -0.0133312936     2     3     4     7
 0.0401884705     2     3     6     7
 0.0146918102     2     3     7     1
 0.0716593153     2     3     7     2
 -0.0019181681     2     3     7     4
 0.0229204238     2     3     7     6
 0.0716493478     2     4     1     1
 -0.0068313834     2     4     1     2
 -0.0001307236     2     4     1     6
 0.0029916291     2     4     3     3
 -0.0114622948     2     4     3     7
 -0.0353812608     2     4     4     1
 -0.5521091044     2     4     4     2
 0.0678327775     2     4     4     6
 0.0067002344     2     4     5     5
 -0.0086434401     2     4     6     1
 -0.0335723128     2     4     6     2
 -0.0120092903     2     4     6     6
 0.0019181681     2     4     7     3
 -0.0141853134     2     4     7     7
 -0.0407938261     2     5     5     1
 -0.5825920922     2     5     5     2
 -0.0067002344     2     5     5     4
 0.0661021532     2     5     5     6
 -0.1477105854     2     6     1     1
 -0.0015048338     2     6     1     2
 0.0001307236     2     6     1     4
 -0.0679872574     2     6     3     3
 0.0151368384     2     6     3     7
 -0.0079784878     2     6     4     1
 -0.0335723128     2     6     4     2
 -0.0678327775     2     6     4     4
 -0.0661021532     2     6     5     5
 -0.0028802494     2     6     6     1
 -0.3347103720     2     6     6     2
 0.0120092903     2     6     6     4
 -0.0229204238     2     6     7     3
 -0.0137023059     2     6     7     7
 -0.0032686125     2     7     1     3
 0.0106024597     2     7     3     1
 0.0716593153     2     7     3     2
 0.0114622948     2     7     3     4
 -0.0151368384     2     7     3     6
 0.0133312936     2     7     4     3
 -0.0401884705     2     7     6     3
 -0.0073042463     2     7     7     1
 -0.3280775572     2     7     7     2
 0.0141853134     2     7     7     4
 0.0137023059     2     7     7     6
 -0.8588725005     3     1     1     3
 0.1795297614     3     1     1     7
 -0.0298972797     3     1     2     3
 0.0106024597     3     1     2     7
 -0.0104642666     3     1     4     3
 0.0039240717     3     1     4     7
 0.0048365289     3     1     6     3
 -0.0056933363     3     1     6     7
 -0.0032686125     3     1     7     2
 0.0017128456     3     1     7     4
 -0.0025239731     3     1     7     6
 -0.0298972797     3     2     1     3
 0.0146918102     3     2     1     7
 -0.5246435486     3     2     2     3
 0.0716593153     3     2     2     7
 -0.0029916291     3     2     4     3
 -0.0019181681     3     2     4     7
 0.0679872574     3     2     6     3
 0.0229204238     3     2     6     7
 0.0032686125     3     2     7     1
 -0.0133312936     3     2     7     4
 0.0401884705     3     2     7     6
 0.8588725005     3     3     1     1
 0.0298972797     3     3     1     2
 0.0104642666     3     3     1     4
 -0.0048365289     3     3     1     6
 0.0298972797     3     3     2     1
 0.5246435486     3     3     2     2
 0.0029916291     3     3     2     4
 -0.0679872574     3     3     2     6
 0.0104642666     3     3     4     1
 0.0029916291     3     3     4     2
 0.5596855115     3     3     4     4
 0.0364694310     3     3     4     6
 0.5855859911     3     3     5     5
 -0.0048365289     3     3     6     1
 -0.0679872574     3     3     6     2
 0.0364694310     3     3     6     4
 0.3386931749     3     3     6     6
 0.3052791943     3     3     7     7
 -0.0104642666     3     4     1     3
 0.0023514812     3     4     1     7
 -0.0029916291     3     4     2     3
 0.0114622948     3     4     2     7
 -0.5596855115     3     4     4     3
 0.0910642027     3     4     4     7
 -0.0364694310     3     4     6     3
 0.0018220387     3     4     6     7
 -0.0017128456     3     4     7     1
 0.0133312936     3     4     7     2
 -0.0091783779     3     4     7     6
 -0.5855859911     3     5     5     3
 0.0939375010     3     5     5     7
 0.0048365289     3     6     1     3
 -0.0030029348     3     6     1     7
 0.0679872574     3     6     2     3
 -0.0151368384     3     6     2     7
 -0.0364694310     3     6     4     3
 0.0094330137     3     6     4     7
 -0.3386931749     3     6     6     3
 0.0342192564     3     6     6     7
 0.0025239731     3     6     7     1
 -0.0401884705     3     6     7     2
 0.0091783779     3     6     7     4
 -0.1795297614     3     7     1     1
 -0.0146918102     3     7     1     2
 -0.0023514812     3     7     1     4
 0.0030029348     3     7     1     6
 -0.0106024597     3     7     2     1
 -0.0716593153     3     7     2     2
 -0.0114622948     3     7     2     4
 0.0151368384     3     7     2     6
 -0.0039240717     3     7     4     1
 0.0019181681     3     7     4     2
 -0.0910642027     3     7     4     4
 -0.0094330137     3     7     4     6
 -0.0939375010     3     7     5     5
 0.0056933363     3     7     6     1
 -0.0229204238     3     7     6     2
 -0.0018220387     3     7     6     4
 -0.0342192564     3     7     6     6