&FCI NORB= 16,NELEC= 10,MS2=0,
 ORBSYM=1,1,1,1,1,1,1,1,1,1,1,1,1,1,1,1
 ISYM=1,
&END
 0.9847939849     1     1     2     2
 0.0667382976     1     1     2     4
 -0.0887098660     1     1     2     6
 0.0538782139     1     1     2     8
 0.1052366646     1     1     2    11
 0.0351544455     1     1     2    13
 -0.1087329171     1     1     2    15
 0.8714961826     1     1     3     3
 -0.0938242023     1     1     3     7
 -0.0479521899     1     1     3    10
 -0.1971251999     1     1     3    12
 0.0667382976     1     1     4     2
 0.9501902167     1     1     4     4
 0.0508663763     1     1     4     6
 0.1034500661     1     1     4     8
 -0.1408656995     1     1     4    11
 -0.0275021649     1     1     4    13
 -0.0469786148     1     1     4    15
 0.9950120524     1     1     5     5
 -0.1775084683     1     1     5     9
 0.0459301540     1     1     5    16
 -0.0887098660     1     1     6     2
 0.0508663763     1     1     6     4
 0.2480448701     1     1     6     6
 -0.0195113038     1     1     6     8
 -0.0963051448     1     1     6    11
 -0.0297640835     1     1     6    13
 0.0597263462     1     1     6    15
 -0.0938242023     1     1     7     3
 0.2102098774     1     1     7     7
 -0.0000000002     1     1     7     8
 0.0242777231     1     1     7    10
 -0.0000000001     1     1     7    11
 0.1044615427     1     1     7    12
 -0.0000000007     1     1     7    15
 0.0538782139     1     1     8     2
 0.1034500661     1     1     8     4
 -0.0195113038     1     1     8     6
 -0.0000000002     1     1     8     7
 0.2758535748     1     1     8     8
 0.0000000001     1     1     8    10
 -0.0157506532     1     1     8    11
 0.0000000002     1     1     8    12
 -0.0122195581     1     1     8    13
 -0.0415552597     1     1     8    15
 -0.1775084683     1     1     9     5
 0.3212876047     1     1     9     9
 -0.0302712858     1     1     9    16
 -0.0479521899     1     1    10     3
 0.0242777231     1     1    10     7
 0.0000000001     1     1    10     8
 0.2767767834     1     1    10    10
 0.0507057897     1     1    10    12
 0.0000000004     1     1    10    15
 0.1052366646     1     1    11     2
 -0.1408656995     1     1    11     4
 -0.0963051448     1     1    11     6
 -0.0000000001     1     1    11     7
 -0.0157506532     1     1    11     8
 0.3623161757     1     1    11    11
 0.0178296060     1     1    11    13
 -0.0185913262     1     1    11    15
 -0.1971251999     1     1    12     3
 0.1044615427     1     1    12     7
 0.0000000002     1     1    12     8
 0.0507057897     1     1    12    10
 0.3842637799     1     1    12    12
 0.0000000006     1     1    12    15
 0.0351544455     1     1    13     2
 -0.0275021649     1     1    13     4
 -0.0297640835     1     1    13     6
 -0.0122195581     1     1    13     8
 0.0178296060     1     1    13    11
 0.2983152978     1     1    13    13
 -0.0074912330     1     1    13    15
 0.2999620102     1     1    14    14
 -0.1087329171     1     1    15     2
 -0.0469786148     1     1    15     4
 0.0597263462     1     1    15     6
 -0.0000000007     1     1    15     7
 -0.0415552597     1     1    15     8
 0.0000000004     1     1    15    10
 -0.0185913262     1     1    15    11
 0.0000000006     1     1    15    12
 -0.0074912331     1     1    15    13
 0.3261017469     1     1    15    15
 0.0459301540     1     1    16     5
 -0.0302712858     1     1    16     9
 0.3046462193     1     1    16    16
 -0.9847939849     1     2     2     1
 -0.0070666052     1     2     2     4
 -0.0008758299     1     2     2     6
 -0.0017235943     1     2     2     8
 0.0028617040     1     2     2    11
 0.0007264067     1     2     2    13
 0.0006485654     1     2     2    15
 0.0312619696     1     2     3     3
 -0.0067342069     1     2     3     7
 -0.0049624568     1     2     3    10
 -0.0168633147     1     2     3    12
 -0.0667382976     1     2     4     1
 0.0360869344     1     2     4     4
 0.0046243520     1     2     4     6
 0.0063201690     1     2     4     8
 -0.0124312399     1     2     4    11
 -0.0031537873     1     2     4    13
 -0.0020721239     1     2     4    15
 0.0408287602     1     2     5     5
 -0.0130241627     1     2     5     9
 0.0043590209     1     2     5    16
 0.0887098660     1     2     6     1
 0.0043820676     1     2     6     4
 0.0007122341     1     2     6     6
 0.0007874118     1     2     6     8
 -0.0020150412     1     2     6    11
 -0.0004777322     1     2     6    13
 -0.0001204250     1     2     6    15
 -0.0049561566     1     2     7     3
 0.0013684375     1     2     7     7
 0.0000000001     1     2     7     8
 0.0009139487     1     2     7    10
 0.0035930466     1     2     7    12
 0.0000000002     1     2     7    15
 -0.0538782139     1     2     8     1
 0.0044767396     1     2     8     4
 0.0005047897     1     2     8     6
 0.0000000001     1     2     8     7
 0.0014897994     1     2     8     8
 -0.0020926729     1     2     8    11
 -0.0002627551     1     2     8    13
 -0.0006274095     1     2     8    15
 -0.0099958760     1     2     9     5
 0.0044826480     1     2     9     9
 -0.0012271284     1     2     9    16
 -0.0033886917     1     2    10     3
 0.0008207065     1     2    10     7
 0.0007885320     1     2    10    10
 0.0021286148     1     2    10    12
 -0.0000000001     1     2    10    15
 -0.1052366646     1     2    11     1
 -0.0103780293     1     2    11     4
 -0.0017225356     1     2    11     6
 -0.0025046378     1     2    11     8
 0.0047286490     1     2    11    11
 0.0010086991     1     2    11    13
 0.0007197002     1     2    11    15
 -0.0116451861     1     2    12     3
 0.0033598554     1     2    12     7
 0.0021963689     1     2    12    10
 0.0082438168     1     2    12    12
 -0.0000000001     1     2    12    15
 -0.0351544455     1     2    13     1
 -0.0023429042     1     2    13     4
 -0.0003506945     1     2    13     6
 -0.0003035569     1     2    13     8
 0.0008719385     1     2    13    11
 0.0000753984     1     2    13    13
 0.0000433561     1     2    13    15
 -0.0001890402     1     2    14    14
 0.1087329171     1     2    15     1
 -0.0006139920     1     2    15     4
 0.0000980764     1     2    15     6
 0.0000000002     1     2    15     7
 -0.0003890956     1     2    15     8
 -0.0000000001     1     2    15    10
 0.0001688145     1     2    15    11
 -0.0000000002     1     2    15    12
 -0.0000799917     1     2    15    13
 0.0003826778     1     2    15    15
 0.0028852039     1     2    16     5
 -0.0010272625     1     2    16     9
 0.0002436741     1     2    16    16
 -0.0012440983     1     3     2     7
 -0.0012405207     1     3     2    10
 -0.0040066046     1     3     2    12
 -0.8714961826     1     3     3     1
 -0.0312619696     1     3     3     2
 -0.0105894040     1     3     3     4
 0.0030079918     1     3     3     6
 -0.0035936970     1     3     3     8
 -0.0011679868     1     3     3    11
 -0.0029518567     1     3     3    13
 0.0064672568     1     3     3    15
 0.0004892455     1     3     4     7
 0.0022032569     1     3     4    10
 0.0015248601     1     3     4    12
 0.0021980346     1     3     5    14
 -0.0012396966     1     3     6     7
 0.0000926774     1     3     6    10
 -0.0011826371     1     3     6    12
 0.0938242023     1     3     7     1
 0.0049561566     1     3     7     2
 0.0017266108     1     3     7     4
 -0.0020178946     1     3     7     6
 0.0012629593     1     3     7     8
 0.0013563129     1     3     7    11
 0.0000080434     1     3     7    13
 -0.0013561474     1     3     7    15
 0.0006706250     1     3     8     7
 -0.0007643883     1     3     8    10
 0.0017356690     1     3     8    12
 0.0008048417     1     3     9    14
 0.0479521899     1     3    10     1
 0.0033886917     1     3    10     2
 0.0010940183     1     3    10     4
 -0.0007876172     1     3    10     6
 -0.0007275696     1     3    10     8
 0.0019835538     1     3    10    11
 0.0007050528     1     3    10    13
 -0.0008603571     1     3    10    15
 0.0007892341     1     3    11     7
 0.0007384146     1     3    11    10
 0.0021320538     1     3    11    12
 0.1971251999     1     3    12     1
 0.0116451861     1     3    12     2
 0.0039987261     1     3    12     4
 -0.0032491587     1     3    12     6
 0.0031002132     1     3    12     8
 0.0038587267     1     3    12    11
 0.0008232421     1     3    12    13
 -0.0043619686     1     3    12    15
 -0.0007412214     1     3    13     7
 -0.0000033829     1     3    13    10
 -0.0010984664     1     3    13    12
 -0.0001118141     1     3    14     5
 0.0016607422     1     3    14     9
 -0.0017003578     1     3    14    16
 -0.0000029720     1     3    15     7
 0.0000153546     1     3    15    10
 -0.0000000001     1     3    15    11
 -0.0009951252     1     3    15    12
 0.0000000001     1     3    15    15
 -0.0014396792     1     3    16    14
 -0.0667382976     1     4     2     1
 0.0070666052     1     4     2     2
 -0.0002046055     1     4     2     6
 0.0013325145     1     4     2     8
 -0.0010105021     1     4     2    11
 -0.0005446624     1     4     2    13
 -0.0013574849     1     4     2    15
 0.0105894040     1     4     3     3
 -0.0013669943     1     4     3     7
 0.0010653210     1     4     3    10
 -0.0027669960     1     4     3    12
 -0.9501902167     1     4     4     1
 -0.0360869344     1     4     4     2
 0.0057928566     1     4     4     6
 -0.0026452162     1     4     4     8
 -0.0083599468     1     4     4    11
 -0.0003450917     1     4     4    13
 0.0076075175     1     4     4    15
 0.0136195825     1     4     5     5
 -0.0041727278     1     4     5     9
 -0.0009890467     1     4     5    16
 -0.0508663763     1     4     6     1
 -0.0043820676     1     4     6     2
 0.0020455284     1     4     6     6
 0.0005360395     1     4     6     8
 -0.0026154189     1     4     6    11
 -0.0006855365     1     4     6    13
 0.0010944851     1     4     6    15
 -0.0017266108     1     4     7     3
 0.0010114201     1     4     7     7
 0.0000000001     1     4     7     8
 0.0008505348     1     4     7    10
 0.0012393887     1     4     7    12
 0.0000000004     1     4     7    15
 -0.1034500661     1     4     8     1
 -0.0044767396     1     4     8     2
 0.0018985459     1     4     8     6
 0.0000000001     1     4     8     7
 -0.0017018485     1     4     8     8
 -0.0000000001     1     4     8    10
 -0.0008306866     1     4     8    11
 -0.0000000001     1     4     8    12
 -0.0014666076     1     4     8    13
 0.0014759224     1     4     8    15
 -0.0034942952     1     4     9     5
 0.0014796141     1     4     9     9
 -0.0012840687     1     4     9    16
 -0.0010940183     1     4    10     3
 0.0012941541     1     4    10     7
 -0.0000000001     1     4    10     8
 -0.0000399861     1     4    10    10
 0.0026801377     1     4    10    12
 -0.0000000003     1     4    10    15
 0.1408656995     1     4    11     1
 0.0103780293     1     4    11     2
 -0.0035520720     1     4    11     6
 0.0015617294     1     4    11     8
 0.0052093847     1     4    11    11
 0.0017708926     1     4    11    13
 -0.0032771544     1     4    11    15
 -0.0039987261     1     4    12     3
 0.0013190743     1     4    12     7
 -0.0000000001     1     4    12     8
 0.0016448097     1     4    12    10
 0.0034773556     1     4    12    12
 -0.0000000004     1     4    12    15
 0.0275021649     1     4    13     1
 0.0023429042     1     4    13     2
 -0.0011824352     1     4    13     6
 -0.0012207471     1     4    13     8
 0.0024606537     1     4    13    11
 0.0017477260     1     4    13    13
 -0.0001738507     1     4    13    15
 0.0015137704     1     4    14    14
 0.0469786148     1     4    15     1
 0.0006139920     1     4    15     2
 -0.0002312186     1     4    15     6
 0.0000000004     1     4    15     7
 0.0002702998     1     4    15     8
 -0.0000000003     1     4    15    10
 -0.0001235152     1     4    15    11
 -0.0000000004     1     4    15    12
 0.0005071381     1     4    15    13
 0.0000970060     1     4    15    15
 0.0010646672     1     4    16     5
 -0.0021166637     1     4    16     9
 0.0014842188     1     4    16    16
 -0.0019633919     1     5     2     9
 0.0011606298     1     5     2    16
 0.0024421876     1     5     3    14
 -0.0004136384     1     5     4     9
 -0.0022284767     1     5     4    16
 -0.9950120524     1     5     5     1
 -0.0408287602     1     5     5     2
 -0.0136195825     1     5     5     4
 0.0053430790     1     5     5     6
 -0.0064418580     1     5     5     8
 -0.0068776655     1     5     5    11
 -0.0020277242     1     5     5    13
 0.0068599096     1     5     5    15
 -0.0017713338     1     5     6     9
 0.0001477072     1     5     6    16
 0.0005190204     1     5     7    14
 0.0001944567     1     5     8     9
 0.0003099968     1     5     8    16
 0.1775084683     1     5     9     1
 0.0099958760     1     5     9     2
 0.0034942952     1     5     9     4
 -0.0035427688     1     5     9     6
 0.0022647475     1     5     9     8
 0.0019228676     1     5     9    11
 0.0009105449     1     5     9    13
 -0.0049675776     1     5     9    15
 0.0000520594     1     5    10    14
 -0.0004477935     1     5    11     9
 -0.0008383506     1     5    11    16
 0.0006558283     1     5    12    14
 0.0002357852     1     5    13     9
 0.0001205414     1     5    13    16
 0.0001118141     1     5    14     3
 0.0010395212     1     5    14     7
 0.0004032386     1     5    14    10
 0.0019321037     1     5    14    12
 -0.0028342207     1     5    15     9
 -0.0002285989     1     5    15    16
 -0.0459301540     1     5    16     1
 -0.0028852039     1     5    16     2
 -0.0010646672     1     5    16     4
 0.0010783923     1     5    16     6
 0.0001022362     1     5    16     8
 -0.0025228260     1     5    16    11
 -0.0003090542     1     5    16    13
 0.0003619134     1     5    16    15
 0.0887098660     1     6     2     1
 0.0008758299     1     6     2     2
 0.0002046055     1     6     2     4
 0.0002898793     1     6     2     8
 -0.0003101820     1     6     2    11
 -0.0001326889     1     6     2    13
 -0.0002008131     1     6     2    15
 -0.0030079918     1     6     3     3
 0.0007658125     1     6     3     7
 0.0008883563     1     6     3    10
 0.0020647206     1     6     3    12
 -0.0508663763     1     6     4     1
 -0.0046243520     1     6     4     2
 -0.0057928566     1     6     4     4
 -0.0013571375     1     6     4     8
 0.0009494231     1     6     4    11
 0.0004993141     1     6     4    13
 0.0013216054     1     6     4    15
 -0.0053430790     1     6     5     5
 0.0017412993     1     6     5     9
 -0.0009183938     1     6     5    16
 -0.2480448701     1     6     6     1
 -0.0007122341     1     6     6     2
 -0.0020455284     1     6     6     4
 -0.0002986512     1     6     6     8
 0.0004160177     1     6     6    11
 0.0000843621     1     6     6    13
 0.0002544615     1     6     6    15
 0.0020178946     1     6     7     3
 -0.0003947348     1     6     7     7
 -0.0002421410     1     6     7    10
 -0.0011674655     1     6     7    12
 0.0195113038     1     6     8     1
 -0.0005047897     1     6     8     2
 -0.0018985459     1     6     8     4
 -0.0006622223     1     6     8     8
 0.0006614528     1     6     8    11
 -0.0000583836     1     6     8    13
 0.0003402681     1     6     8    15
 0.0035427688     1     6     9     5
 -0.0012845188     1     6     9     9
 0.0002578822     1     6     9    16
 0.0007876172     1     6    10     3
 -0.0000335721     1     6    10     7
 -0.0001710662     1     6    10    10
 -0.0001633580     1     6    10    12
 -0.0000000001     1     6    10    15
 0.0963051448     1     6    11     1
 0.0017225356     1     6    11     2
 0.0035520720     1     6    11     4
 0.0009552431     1     6    11     8
 -0.0006335959     1     6    11    11
 -0.0000571347     1     6    11    13
 -0.0006893228     1     6    11    15
 0.0032491587     1     6    12     3
 -0.0007599785     1     6    12     7
 -0.0004015623     1     6    12    10
 -0.0018335574     1     6    12    12
 0.0297640835     1     6    13     1
 0.0003506945     1     6    13     2
 0.0011824352     1     6    13     4
 0.0000266091     1     6    13     8
 -0.0000878046     1     6    13    11
 0.0001771054     1     6    13    13
 -0.0000743572     1     6    13    15
 0.0002524787     1     6    14    14
 -0.0597263462     1     6    15     1
 -0.0000980764     1     6    15     2
 0.0002312186     1     6    15     4
 0.0000000001     1     6    15     7
 0.0001098440     1     6    15     8
 -0.0000000001     1     6    15    10
 -0.0001228419     1     6    15    11
 -0.0000000001     1     6    15    12
 0.0000608098     1     6    15    13
 -0.0000118171     1     6    15    15
 -0.0010783923     1     6    16     5
 0.0001247471     1     6    16     9
 0.0001030383     1     6    16    16
 0.0012440983     1     7     2     3
 0.0000909593     1     7     2    10
 0.0002208379     1     7     2    12
 0.0938242023     1     7     3     1
 0.0067342069     1     7     3     2
 0.0013669943     1     7     3     4
 -0.0007658125     1     7     3     6
 0.0005970848     1     7     3     8
 0.0005409217     1     7     3    11
 0.0007429259     1     7     3    13
 -0.0013424659     1     7     3    15
 -0.0004892455     1     7     4     3
 -0.0004456730     1     7     4    10
 -0.0000824243     1     7     4    12
 -0.0005181501     1     7     5    14
 0.0012396966     1     7     6     3
 -0.0002081987     1     7     6    10
 -0.0004060408     1     7     6    12
 -0.0000000001     1     7     6    15
 -0.2102098774     1     7     7     1
 -0.0013684375     1     7     7     2
 -0.0010114201     1     7     7     4
 0.0003947348     1     7     7     6
 -0.0004049272     1     7     7     8
 -0.0001273997     1     7     7    11
 0.0000378620     1     7     7    13
 0.0003646772     1     7     7    15
 0.0000000002     1     7     8     1
 -0.0000000001     1     7     8     2
 -0.0006706250     1     7     8     3
 -0.0000000001     1     7     8     4
 0.0002759358     1     7     8    10
 -0.0000211621     1     7     8    12
 0.0000000002     1     7     8    15
 -0.0001818868     1     7     9    14
 -0.0242777231     1     7    10     1
 -0.0008207065     1     7    10     2
 -0.0012941541     1     7    10     4
 0.0000335721     1     7    10     6
 -0.0000293617     1     7    10     8
 -0.0000693398     1     7    10    11
 -0.0000751750     1     7    10    13
 0.0002509605     1     7    10    15
 0.0000000001     1     7    11     1
 -0.0007892341     1     7    11     3
 -0.0000461601     1     7    11    10
 -0.0000472100     1     7    11    12
 0.0000000001     1     7    11    15
 -0.1044615427     1     7    12     1
 -0.0033598554     1     7    12     2
 -0.0013190743     1     7    12     4
 0.0007599785     1     7    12     6
 -0.0007956312     1     7    12     8
 -0.0008519756     1     7    12    11
 -0.0001903625     1     7    12    13
 0.0010872213     1     7    12    15
 0.0007412214     1     7    13     3
 -0.0001108005     1     7    13    10
 -0.0001561281     1     7    13    12
 -0.0010395212     1     7    14     5
 -0.0000072394     1     7    14     9
 0.0002712520     1     7    14    16
 0.0000000007     1     7    15     1
 -0.0000000002     1     7    15     2
 0.0000029720     1     7    15     3
 -0.0000000004     1     7    15     4
 -0.0000000001     1     7    15     6
 -0.0000000001     1     7    15     8
 -0.0000047553     1     7    15    10
 0.0002176739     1     7    15    12
 -0.0000000001     1     7    15    13
 0.0000000008     1     7    15    15
 0.0003231888     1     7    16    14
 -0.0538782139     1     8     2     1
 0.0017235943     1     8     2     2
 -0.0013325145     1     8     2     4
 -0.0002898793     1     8     2     6
 0.0004449246     1     8     2    11
 0.0000549633     1     8     2    13
 -0.0002678394     1     8     2    15
 0.0035936970     1     8     3     3
 -0.0005970848     1     8     3     7
 -0.0000510527     1     8     3    10
 -0.0014162497     1     8     3    12
 -0.1034500661     1     8     4     1
 -0.0063201690     1     8     4     2
 0.0026452162     1     8     4     4
 0.0013571375     1     8     4     6
 -0.0024033887     1     8     4    11
 -0.0002382688     1     8     4    13
 0.0011915551     1     8     4    15
 0.0064418580     1     8     5     5
 -0.0020880855     1     8     5     9
 0.0002131890     1     8     5    16
 0.0195113038     1     8     6     1
 -0.0007874118     1     8     6     2
 -0.0005360395     1     8     6     4
 0.0002986512     1     8     6     6
 -0.0002950047     1     8     6    11
 -0.0000854260     1     8     6    13
 0.0002299427     1     8     6    15
 0.0000000002     1     8     7     1
 -0.0000000001     1     8     7     2
 -0.0012629593     1     8     7     3
 -0.0000000001     1     8     7     4
 0.0004049272     1     8     7     7
 0.0003055245     1     8     7    10
 0.0007757115     1     8     7    12
 0.0000000003     1     8     7    15
 -0.2758535748     1     8     8     1
 -0.0014897994     1     8     8     2
 0.0017018485     1     8     8     4
 0.0006622223     1     8     8     6
 -0.0009197491     1     8     8    11
 -0.0004447289     1     8     8    13
 0.0002460781     1     8     8    15
 -0.0022647475     1     8     9     5
 0.0008536407     1     8     9     9
 -0.0004151252     1     8     9    16
 -0.0000000001     1     8    10     1
 0.0007275696     1     8    10     3
 0.0000000001     1     8    10     4
 0.0000293617     1     8    10     7
 -0.0001497213     1     8    10    10
 -0.0000094809     1     8    10    12
 -0.0000000002     1     8    10    15
 0.0157506532     1     8    11     1
 0.0025046378     1     8    11     2
 -0.0015617294     1     8    11     4
 -0.0009552431     1     8    11     6
 0.0016769456     1     8    11    11
 0.0004961379     1     8    11    13
 -0.0005937375     1     8    11    15
 -0.0000000002     1     8    12     1
 -0.0031002132     1     8    12     3
 0.0000000001     1     8    12     4
 0.0007956312     1     8    12     7
 0.0006763504     1     8    12    10
 0.0019974288     1     8    12    12
 -0.0000000003     1     8    12    15
 0.0122195581     1     8    13     1
 0.0003035569     1     8    13     2
 0.0012207471     1     8    13     4
 -0.0000266091     1     8    13     6
 -0.0000222308     1     8    13    11
 0.0001980677     1     8    13    13
 -0.0000795414     1     8    13    15
 0.0002640791     1     8    14    14
 0.0415552597     1     8    15     1
 0.0003890956     1     8    15     2
 -0.0002702998     1     8    15     4
 -0.0001098440     1     8    15     6
 0.0000000001     1     8    15     7
 -0.0000000001     1     8    15    10
 0.0001283497     1     8    15    11
 -0.0000000001     1     8    15    12
 0.0001266682     1     8    15    13
 0.0000034966     1     8    15    15
 -0.0001022362     1     8    16     5
 -0.0002859550     1     8    16     9
 0.0002295167     1     8    16    16
 0.0019633919     1     9     2     5
 -0.0001947630     1     9     2    16
 -0.0008650017     1     9     3    14
 0.0004136384     1     9     4     5
 0.0008345599     1     9     4    16
 0.1775084683     1     9     5     1
 0.0130241627     1     9     5     2
 0.0041727278     1     9     5     4
 -0.0017412993     1     9     5     6
 0.0020880855     1     9     5     8
 0.0023118454     1     9     5    11
 0.0006623302     1     9     5    13
 -0.0021364221     1     9     5    15
 0.0017713338     1     9     6     5
 0.0001323195     1     9     6    16
 -0.0001748362     1     9     7    14
 -0.0001944567     1     9     8     5
 -0.0001286634     1     9     8    16
 -0.3212876047     1     9     9     1
 -0.0044826480     1     9     9     2
 -0.0014796141     1     9     9     4
 0.0012845188     1     9     9     6
 -0.0008536407     1     9     9     8
 -0.0007482948     1     9     9    11
 -0.0003417859     1     9     9    13
 0.0018245954     1     9     9    15
 -0.0000110113     1     9    10    14
 0.0004477935     1     9    11     5
 0.0003259082     1     9    11    16
 -0.0002200262     1     9    12    14
 -0.0002357852     1     9    13     5
 -0.0000680021     1     9    13    16
 -0.0016607422     1     9    14     3
 0.0000072394     1     9    14     7
 0.0001058158     1     9    14    10
 0.0002157409     1     9    14    12
 0.0028342207     1     9    15     5
 0.0003665434     1     9    15    16
 0.0302712858     1     9    16     1
 0.0010272625     1     9    16     2
 0.0021166637     1     9    16     4
 -0.0001247471     1     9    16     6
 0.0002859550     1     9    16     8
 0.0002268044     1     9    16    11
 -0.0000382555     1     9    16    13
 -0.0002123029     1     9    16    15
 0.0012405207     1    10     2     3
 -0.0000909593     1    10     2     7
 -0.0000720571     1    10     2    12
 0.0479521899     1    10     3     1
 0.0049624568     1    10     3     2
 -0.0010653210     1    10     3     4
 -0.0008883563     1    10     3     6
 0.0000510527     1    10     3     8
 0.0012574870     1    10     3    11
 0.0007029241     1    10     3    13
 -0.0008929302     1    10     3    15
 -0.0022032569     1    10     4     3
 0.0004456730     1    10     4     7
 0.0010350192     1    10     4    12
 -0.0003394068     1    10     5    14
 -0.0000926774     1    10     6     3
 0.0002081987     1    10     6     7
 0.0002379480     1    10     6    12
 -0.0242777231     1    10     7     1
 -0.0009139487     1    10     7     2
 -0.0008505348     1    10     7     4
 0.0002421410     1    10     7     6
 -0.0003055245     1    10     7     8
 -0.0000237211     1    10     7    11
 0.0000350136     1    10     7    13
 0.0002562668     1    10     7    15
 -0.0000000001     1    10     8     1
 0.0007643883     1    10     8     3
 0.0000000001     1    10     8     4
 -0.0002759358     1    10     8     7
 -0.0006851803     1    10     8    12
 -0.0000000001     1    10     8    15
 -0.0001160398     1    10     9    14
 -0.2767767834     1    10    10     1
 -0.0007885320     1    10    10     2
 0.0000399861     1    10    10     4
 0.0001710662     1    10    10     6
 0.0001497213     1    10    10     8
 -0.0004222070     1    10    10    11
 -0.0001322877     1    10    10    13
 0.0001390692     1    10    10    15
 -0.0007384146     1    10    11     3
 0.0000461601     1    10    11     7
 0.0000762591     1    10    11    12
 -0.0507057897     1    10    12     1
 -0.0021963689     1    10    12     2
 -0.0016448097     1    10    12     4
 0.0004015623     1    10    12     6
 -0.0006763504     1    10    12     8
 -0.0002874279     1    10    12    11
 -0.0000660400     1    10    12    13
 0.0007681249     1    10    12    15
 0.0000033829     1    10    13     3
 0.0001108005     1    10    13     7
 0.0001621762     1    10    13    12
 -0.0004032386     1    10    14     5
 -0.0001058158     1    10    14     9
 0.0002111259     1    10    14    16
 -0.0000000004     1    10    15     1
 0.0000000001     1    10    15     2
 -0.0000153546     1    10    15     3
 0.0000000003     1    10    15     4
 0.0000000001     1    10    15     6
 0.0000047553     1    10    15     7
 0.0000000001     1    10    15     8
 0.0000000001     1    10    15    11
 0.0001605896     1    10    15    12
 -0.0000000005     1    10    15    15
 0.0002155515     1    10    16    14
 -0.1052366646     1    11     2     1
 -0.0028617040     1    11     2     2
 0.0010105021     1    11     2     4
 0.0003101820     1    11     2     6
 -0.0004449246     1    11     2     8
 0.0001339423     1    11     2    13
 0.0005677704     1    11     2    15
 0.0011679868     1    11     3     3
 -0.0005409217     1    11     3     7
 -0.0012574870     1    11     3    10
 -0.0016994945     1    11     3    12
 0.1408656995     1    11     4     1
 0.0124312399     1    11     4     2
 0.0083599468     1    11     4     4
 -0.0009494231     1    11     4     6
 0.0024033887     1    11     4     8
 -0.0006872523     1    11     4    13
 -0.0031717494     1    11     4    15
 0.0068776655     1    11     5     5
 -0.0023118454     1    11     5     9
 0.0016514120     1    11     5    16
 0.0963051448     1    11     6     1
 0.0020150412     1    11     6     2
 0.0026154189     1    11     6     4
 -0.0004160177     1    11     6     6
 0.0002950047     1    11     6     8
 0.0000310602     1    11     6    13
 -0.0005680154     1    11     6    15
 0.0000000001     1    11     7     1
 -0.0013563129     1    11     7     3
 0.0001273997     1    11     7     7
 0.0000237211     1    11     7    10
 0.0008062678     1    11     7    12
 0.0000000001     1    11     7    15
 0.0157506532     1    11     8     1
 0.0020926729     1    11     8     2
 0.0008306866     1    11     8     4
 -0.0006614528     1    11     8     6
 0.0009197491     1    11     8     8
 0.0005175077     1    11     8    13
 -0.0007233720     1    11     8    15
 -0.0019228676     1    11     9     5
 0.0007482948     1    11     9     9
 0.0000972792     1    11     9    16
 -0.0019835538     1    11    10     3
 0.0000693398     1    11    10     7
 0.0004222070     1    11    10    10
 0.0003634419     1    11    10    12
 -0.0000000001     1    11    10    15
 -0.3623161757     1    11    11     1
 -0.0047286490     1    11    11     2
 -0.0052093847     1    11    11     4
 0.0006335959     1    11    11     6
 -0.0016769456     1    11    11     8
 -0.0002274422     1    11    11    13
 0.0016095263     1    11    11    15