&FCI NORB=  7,NELEC=  6,MS2=0,
 ORBSYM=1,1,1,1,1,1,1
 ISYM=1,
&END
 0.1370790176     1     1     2     2
 0.0157101833     1     1     2     4
 0.0088377703     1     1     2     6
 0.1756576667     1     1     3     3
 0.0322264633     1     1     3     5
 -0.0017163333     1     1     3     7
 0.0157101833     1     1     4     2
 0.1901262992     1     1     4     4
 -0.0391258110     1     1     4     6
 0.0322264633     1     1     5     3
 0.1874343298     1     1     5     5
 -0.0108440613     1     1     5     7
 0.0088377703     1     1     6     2
 -0.0391258110     1     1     6     4
 0.2149344078     1     1     6     6
 -0.0017163333     1     1     7     3
 -0.0108440613     1     1     7     5
 0.1879201067     1     1     7     7
 -0.1370790176     1     2     2     1
 -0.0496336616     1     2     2     3
 -0.0003574690     1     2     2     5
 0.0020125706     1     2     2     7
 0.0460475232     1     2     3     4
 -0.0219333610     1     2     3     6
 -0.0157101833     1     2     4     1
 0.0125939673     1     2     4     3
 -0.0502397828     1     2     4     5
 0.0071020240     1     2     4     7
 -0.0359999069     1     2     5     4
 -0.0556168719     1     2     5     6
 -0.0088377703     1     2     6     1
 -0.0160019645     1     2     6     3
 -0.0455515426     1     2     6     5
 -0.0063730194     1     2     6     7
 0.0053886266     1     2     7     4
 -0.0059275213     1     2     7     6
 0.0496336616     1     3     2     2
 0.0333341059     1     3     2     4
 -0.0059344808     1     3     2     6
 -0.1756576667     1     3     3     1
 0.0324426024     1     3     3     5
 0.0035959568     1     3     3     7
 -0.0125939673     1     3     4     2
 0.0106360951     1     3     4     4
 -0.0352388890     1     3     4     6
 -0.0322264633     1     3     5     1
 0.0018827661     1     3     5     5
 0.0001235039     1     3     5     7
 0.0160019645     1     3     6     2
 -0.0157297417     1     3     6     4
 0.0221688142     1     3     6     6
 0.0017163333     1     3     7     1
 -0.0015361300     1     3     7     5
 0.0162596332     1     3     7     7
 -0.0157101833     1     4     2     1
 -0.0333341059     1     4     2     3
 -0.0149359461     1     4     2     5
 0.0017456594     1     4     2     7
 -0.0460475232     1     4     3     2
 -0.0227140343     1     4     3     6
 -0.1901262992     1     4     4     1
 -0.0106360951     1     4     4     3
 -0.0016783540     1     4     4     5
 0.0143548668     1     4     4     7
 0.0359999069     1     4     5     2
 -0.0116404761     1     4     5     6
 0.0391258110     1     4     6     1
 0.0157297417     1     4     6     3
 -0.0101690282     1     4     6     5
 -0.0024940116     1     4     6     7
 -0.0053886266     1     4     7     2
 0.0007832652     1     4     7     6
 0.0003574690     1     5     2     2
 0.0149359461     1     5     2     4
 -0.0123524382     1     5     2     6
 -0.0322264633     1     5     3     1
 -0.0324426024     1     5     3     3
 0.0014585210     1     5     3     7
 0.0502397828     1     5     4     2
 0.0016783540     1     5     4     4
 -0.0013349439     1     5     4     6
 -0.1874343298     1     5     5     1
 -0.0018827661     1     5     5     3
 0.0141162996     1     5     5     7
 0.0455515426     1     5     6     2
 0.0101690282     1     5     6     4
 -0.0063091385     1     5     6     6
 0.0108440613     1     5     7     1
 0.0015361300     1     5     7     3
 -0.0057979292     1     5     7     7
 -0.0088377703     1     6     2     1
 0.0059344808     1     6     2     3
 0.0123524382     1     6     2     5
 -0.0010778727     1     6     2     7
 0.0219333610     1     6     3     2
 0.0227140343     1     6     3     4
 0.0391258110     1     6     4     1
 0.0352388890     1     6     4     3
 0.0013349439     1     6     4     5
 -0.0030637460     1     6     4     7
 0.0556168719     1     6     5     2
 0.0116404761     1     6     5     4
 -0.2149344078     1     6     6     1
 -0.0221688142     1     6     6     3
 0.0063091385     1     6     6     5
 0.0155654251     1     6     6     7
 0.0059275213     1     6     7     2
 -0.0007832652     1     6     7     4
 -0.0020125706     1     7     2     2
 -0.0017456594     1     7     2     4
 0.0010778727     1     7     2     6
 0.0017163333     1     7     3     1
 -0.0035959568     1     7     3     3
 -0.0014585210     1     7     3     5
 -0.0071020240     1     7     4     2
 -0.0143548668     1     7     4     4
 0.0030637460     1     7     4     6
 0.0108440613     1     7     5     1
 -0.0001235039     1     7     5     3
 -0.0141162996     1     7     5     5
 0.0063730194     1     7     6     2
 0.0024940116     1     7     6     4
 -0.0155654251     1     7     6     6
 -0.1879201067     1     7     7     1
 -0.0162596332     1     7     7     3
 0.0057979292     1     7     7     5
 -0.1370790176     2     1     1     2
 -0.0157101833     2     1     1     4
 -0.0088377703     2     1     1     6
 -0.0496336616     2     1     3     2
 0.0125939673     2     1     3     4
 -0.0160019645     2     1     3     6
 0.0460475232     2     1     4     3
 -0.0359999069     2     1     4     5
 0.0053886266     2     1     4     7
 -0.0003574690     2     1     5     2
 -0.0502397828     2     1     5     4
 -0.0455515426     2     1     5     6
 -0.0219333610     2     1     6     3
 -0.0556168719     2     1     6     5
 -0.0059275213     2     1     6     7
 0.0020125706     2     1     7     2
 0.0071020240     2     1     7     4
 -0.0063730194     2     1     7     6
 0.1370790176     2     2     1     1
 0.0496336616     2     2     1     3
 0.0003574690     2     2     1     5
 -0.0020125706     2     2     1     7
 0.0496336616     2     2     3     1
 0.1430410138     2     2     3     3
 0.0074667999     2     2     3     5
 -0.0043138435     2     2     3     7
 0.1731102996     2     2     4     4
 -0.0076449785     2     2     4     6
 0.0003574690     2     2     5     1
 0.0074667999     2     2     5     3
 0.1824690908     2     2     5     5
 -0.0082986953     2     2     5     7
 -0.0076449785     2     2     6     4
 0.1874658420     2     2     6     6
 -0.0020125706     2     2     7     1
 -0.0043138435     2     2     7     3
 -0.0082986953     2     2     7     5
 0.1705985585     2     2     7     7
 -0.0496336616     2     3     1     2
 -0.0333341059     2     3     1     4
 0.0059344808     2     3     1     6
 -0.1430410138     2     3     3     2
 -0.0573555324     2     3     3     4
 0.0045245001     2     3     3     6
 -0.0460475232     2     3     4     1
 0.0554780214     2     3     4     5
 0.0012722277     2     3     4     7
 -0.0074667999     2     3     5     2
 0.0301154662     2     3     5     4
 0.0508531814     2     3     5     6
 0.0219333610     2     3     6     1
 0.0332656284     2     3     6     5
 0.0065004320     2     3     6     7
 0.0043138435     2     3     7     2
 0.0014193764     2     3     7     4
 0.0061896498     2     3     7     6
 0.0157101833     2     4     1     1
 0.0333341059     2     4     1     3
 0.0149359461     2     4     1     5
 -0.0017456594     2     4     1     7
 -0.0125939673     2     4     3     1
 0.0573555324     2     4     3     3
 0.0290165982     2     4     3     5
 -0.0008013349     2     4     3     7
 -0.1731102996     2     4     4     2
 -0.0368790566     2     4     4     6
 0.0502397828     2     4     5     1
 -0.0301154662     2     4     5     3
 0.0041581677     2     4     5     5
 -0.0142359616     2     4     5     7
 0.0076449785     2     4     6     2
 0.0204834685     2     4     6     6
 -0.0071020240     2     4     7     1
 -0.0014193764     2     4     7     3
 -0.0038554422     2     4     7     5
 0.0184549688     2     4     7     7
 -0.0003574690     2     5     1     2
 -0.0149359461     2     5     1     4
 0.0123524382     2     5     1     6
 -0.0074667999     2     5     3     2
 -0.0290165982     2     5     3     4
 0.0184357066     2     5     3     6
 0.0359999069     2     5     4     1
 -0.0554780214     2     5     4     3
 -0.0103659138     2     5     4     7
 -0.1824690908     2     5     5     2
 -0.0041581677     2     5     5     4
 -0.0069408744     2     5     5     6
 0.0556168719     2     5     6     1
 -0.0332656284     2     5     6     3
 -0.0132952736     2     5     6     7
 0.0082986953     2     5     7     2
 0.0038554422     2     5     7     4
 -0.0030032228     2     5     7     6
 0.0088377703     2     6     1     1
 -0.0059344808     2     6     1     3
 -0.0123524382     2     6     1     5
 0.0010778727     2     6     1     7
 0.0160019645     2     6     3     1
 -0.0045245001     2     6     3     3
 -0.0184357066     2     6     3     5
 0.0006483775     2     6     3     7
 0.0076449785     2     6     4     2
 0.0368790566     2     6     4     4
 0.0455515426     2     6     5     1
 -0.0508531814     2     6     5     3
 0.0069408744     2     6     5     5
 -0.0103377679     2     6     5     7
 -0.1874658420     2     6     6     2
 -0.0204834685     2     6     6     4
 0.0063730194     2     6     7     1
 -0.0061896498     2     6     7     3
 0.0030032228     2     6     7     5
 0.0037874247     2     6     7     7
 0.0020125706     2     7     1     2
 0.0017456594     2     7     1     4
 -0.0010778727     2     7     1     6
 0.0043138435     2     7     3     2
 0.0008013349     2     7     3     4
 -0.0006483775     2     7     3     6
 -0.0053886266     2     7     4     1
 -0.0012722277     2     7     4     3
 0.0103659138     2     7     4     5
 0.0082986953     2     7     5     2
 0.0142359616     2     7     5     4
 0.0103377679     2     7     5     6
 0.0059275213     2     7     6     1
 -0.0065004320     2     7     6     3
 0.0132952736     2     7     6     5
 -0.1705985585     2     7     7     2
 -0.0184549688     2     7     7     4
 -0.0037874247     2     7     7     6
 -0.1756576667     3     1     1     3
 -0.0322264633     3     1     1     5
 0.0017163333     3     1     1     7
 0.0496336616     3     1     2     2
 -0.0125939673     3     1     2     4
 0.0160019645     3     1     2     6
 0.0333341059     3     1     4     2
 0.0106360951     3     1     4     4
 -0.0157297417     3     1     4     6
 0.0324426024     3     1     5     3
 0.0018827661     3     1     5     5
 -0.0015361300     3     1     5     7
 -0.0059344808     3     1     6     2
 -0.0352388890     3     1     6     4
 0.0221688142     3     1     6     6
 0.0035959568     3     1     7     3
 0.0001235039     3     1     7     5
 0.0162596332     3     1     7     7
 -0.0460475232     3     2     1     4
 0.0219333610     3     2     1     6
 -0.0496336616     3     2     2     1
 -0.1430410138     3     2     2     3
 -0.0074667999     3     2     2     5
 0.0043138435     3     2     2     7
 -0.0333341059     3     2     4     1
 -0.0573555324     3     2     4     3
 0.0301154662     3     2     4     5
 0.0014193764     3     2     4     7
 0.0554780214     3     2     5     4
 0.0332656284     3     2     5     6
 0.0059344808     3     2     6     1
 0.0045245001     3     2     6     3
 0.0508531814     3     2     6     5
 0.0061896498     3     2     6     7
 0.0012722277     3     2     7     4
 0.0065004320     3     2     7     6
 0.1756576667     3     3     1     1
 -0.0324426024     3     3     1     5
 -0.0035959568     3     3     1     7
 0.1430410138     3     3     2     2
 0.0573555324     3     3     2     4
 -0.0045245001     3     3     2     6
 0.0573555324     3     3     4     2
 0.1765858274     3     3     4     4
 -0.0159922920     3     3     4     6
 -0.0324426024     3     3     5     1
 0.1730836595     3     3     5     5
 -0.0021774872     3     3     5     7
 -0.0045245001     3     3     6     2
 -0.0159922920     3     3     6     4
 0.1871687532     3     3     6     6
 -0.0035959568     3     3     7     1
 -0.0021774872     3     3     7     5
 0.1757518049     3     3     7     7
 0.0460475232     3     4     1     2
 0.0227140343     3     4     1     6
 0.0125939673     3     4     2     1
 -0.0573555324     3     4     2     3
 -0.0290165982     3     4     2     5
 0.0008013349     3     4     2     7
 -0.0106360951     3     4     4     1
 -0.1765858274     3     4     4     3
 -0.0618255250     3     4     4     5
 0.0025985465     3     4     4     7
 -0.0554780214     3     4     5     2
 -0.0514466376     3     4     5     6
 0.0352388890     3     4     6     1
 0.0159922920     3     4     6     3
 -0.0088449492     3     4     6     5
 -0.0174098265     3     4     6     7
 -0.0012722277     3     4     7     2
 -0.0073395394     3     4     7     6
 0.0322264633     3     5     1     1
 0.0324426024     3     5     1     3
 -0.0014585210     3     5     1     7
 0.0074667999     3     5     2     2
 0.0290165982     3     5     2     4
 -0.0184357066     3     5     2     6
 -0.0301154662     3     5     4     2
 0.0618255250     3     5     4     4
 -0.0426461427     3     5     4     6
 -0.0018827661     3     5     5     1
 -0.1730836595     3     5     5     3
 -0.0089914322     3     5     5     7
 -0.0508531814     3     5     6     2
 0.0088449492     3     5     6     4
 0.0109424086     3     5     6     6
 -0.0001235039     3     5     7     1
 0.0021774872     3     5     7     3
 0.0177806765     3     5     7     7
 -0.0219333610     3     6     1     2
 -0.0227140343     3     6     1     4
 -0.0160019645     3     6     2     1
 0.0045245001     3     6     2     3
 0.0184357066     3     6     2     5
 -0.0006483775     3     6     2     7
 0.0157297417     3     6     4     1
 0.0159922920     3     6     4     3
 0.0426461427     3     6     4     5
 -0.0099927614     3     6     4     7
 -0.0332656284     3     6     5     2
 0.0514466376     3     6     5     4
 -0.0221688142     3     6     6     1
 -0.1871687532     3     6     6     3
 -0.0109424086     3     6     6     5
 0.0013084323     3     6     6     7
 -0.0065004320     3     6     7     2
 0.0073395394     3     6     7     4
 -0.0017163333     3     7     1     1
 0.0035959568     3     7     1     3
 0.0014585210     3     7     1     5
 -0.0043138435     3     7     2     2
 -0.0008013349     3     7     2     4
 0.0006483775     3     7     2     6
 -0.0014193764     3     7     4     2
 -0.0025985465     3     7     4     4
 0.0099927614     3     7     4     6
 0.0015361300     3     7     5     1
 0.0021774872     3     7     5     3
 0.0089914322     3     7     5     5
 -0.0061896498     3     7     6     2
 0.0174098265     3     7     6     4
 -0.0013084323     3     7     6     6
 -0.0162596332     3     7     7     1
 -0.1757518049     3     7     7     3
 -0.0177806765     3     7     7     5
 -0.0157101833     4     1     1     2
 -0.1901262992     4     1     1     4
 0.0391258110     4     1     1     6
 -0.0460475232     4     1     2     3
 0.0359999069     4     1     2     5
 -0.0053886266     4     1     2     7
 -0.0333341059     4     1     3     2
 -0.0106360951     4     1     3     4
 0.0157297417     4     1     3     6
 -0.0149359461     4     1     5     2
 -0.0016783540     4     1     5     4
 -0.0101690282     4     1     5     6
 -0.0227140343     4     1     6     3
 -0.0116404761     4     1     6     5
 0.0007832652     4     1     6     7
 0.0017456594     4     1     7     2
 0.0143548668     4     1     7     4
 -0.0024940116     4     1     7     6
 0.0157101833     4     2     1     1
 -0.0125939673     4     2     1     3
 0.0502397828     4     2     1     5
 -0.0071020240     4     2     1     7
 -0.1731102996     4     2     2     4
 0.0076449785     4     2     2     6
 0.0333341059     4     2     3     1
 0.0573555324     4     2     3     3
 -0.0301154662     4     2     3     5
 -0.0014193764     4     2     3     7
 0.0149359461     4     2     5     1
 0.0290165982     4     2     5     3
 0.0041581677     4     2     5     5
 -0.0038554422     4     2     5     7
 -0.0368790566     4     2     6     4
 0.0204834685     4     2     6     6
 -0.0017456594     4     2     7     1
 -0.0008013349     4     2     7     3
 -0.0142359616     4     2     7     5
 0.0184549688     4     2     7     7
 0.0125939673     4     3     1     2
 -0.0106360951     4     3     1     4
 0.0352388890     4     3     1     6
 0.0460475232     4     3     2     1
 -0.0554780214     4     3     2     5
 -0.0012722277     4     3     2     7
 -0.0573555324     4     3     3     2
 -0.1765858274     4     3     3     4
 0.0159922920     4     3     3     6
 -0.0290165982     4     3     5     2
 -0.0618255250     4     3     5     4
 -0.0088449492     4     3     5     6
 0.0227140343     4     3     6     1
 -0.0514466376     4     3     6     5
 -0.0073395394     4     3     6     7
 0.0008013349     4     3     7     2
 0.0025985465     4     3     7     4
 -0.0174098265     4     3     7     6
 0.1901262992     4     4     1     1
 0.0106360951     4     4     1     3
 0.0016783540     4     4     1     5
 -0.0143548668     4     4     1     7
 0.1731102996     4     4     2     2
 0.0368790566     4     4     2     6
 0.0106360951     4     4     3     1
 0.1765858274     4     4     3     3
 0.0618255250     4     4     3     5
 -0.0025985465     4     4     3     7
 0.0016783540     4     4     5     1
 0.0618255250     4     4     5     3
 0.1419903109     4     4     5     5
 -0.0039131689     4     4     5     7
 0.0368790566     4     4     6     2
 0.1704737911     4     4     6     6
 -0.0143548668     4     4     7     1
 -0.0025985465     4     4     7     3
 -0.0039131689     4     4     7     5
 0.1747378961     4     4     7     7
 -0.0502397828     4     5     1     2
 -0.0016783540     4     5     1     4
 0.0013349439     4     5     1     6
 -0.0359999069     4     5     2     1
 0.0554780214     4     5     2     3
 0.0103659138     4     5     2     7
 0.0301154662     4     5     3     2
 -0.0618255250     4     5     3     4
 0.0426461427     4     5     3     6
 -0.0041581677     4     5     5     2
 -0.1419903109     4     5     5     4
 0.0586984713     4     5     5     6
 0.0116404761     4     5     6     1
 0.0514466376     4     5     6     3
 0.0126420566     4     5     6     7
 0.0142359616     4     5     7     2
 0.0039131689     4     5     7     4
 0.0048292105     4     5     7     6
 -0.0391258110     4     6     1     1
 -0.0352388890     4     6     1     3
 -0.0013349439     4     6     1     5
 0.0030637460     4     6     1     7
 -0.0076449785     4     6     2     2
 -0.0368790566     4     6     2     4
 -0.0157297417     4     6     3     1
 -0.0159922920     4     6     3     3
 -0.0426461427     4     6     3     5
 0.0099927614     4     6     3     7
 0.0101690282     4     6     5     1
 0.0088449492     4     6     5     3
 -0.0586984713     4     6     5     5
 0.0078128461     4     6     5     7
 -0.0204834685     4     6     6     2
 -0.1704737911     4     6     6     4
 0.0024940116     4     6     7     1
 0.0174098265     4     6     7     3
 -0.0048292105     4     6     7     5
 -0.0203742851     4     6     7     7
 0.0071020240     4     7     1     2
 0.0143548668     4     7     1     4
 -0.0030637460     4     7     1     6
 0.0053886266     4     7     2     1
 0.0012722277     4     7     2     3
 -0.0103659138     4     7     2     5
 0.0014193764     4     7     3     2
 0.0025985465     4     7     3     4
 -0.0099927614     4     7     3     6
 0.0038554422     4     7     5     2
 0.0039131689     4     7     5     4
 -0.0078128461     4     7     5     6
 -0.0007832652     4     7     6     1
 0.0073395394     4     7     6     3
 -0.0126420566     4     7     6     5
 -0.0184549688     4     7     7     2
 -0.1747378961     4     7     7     4
 0.0203742851     4     7     7     6
 -0.0322264633     5     1     1     3
 -0.1874343298     5     1     1     5
 0.0108440613     5     1     1     7
 0.0003574690     5     1     2     2
 0.0502397828     5     1     2     4
 0.0455515426     5     1     2     6
 -0.0324426024     5     1     3     3
 -0.0018827661     5     1     3     5
 0.0015361300     5     1     3     7
 0.0149359461     5     1     4     2
 0.0016783540     5     1     4     4
 0.0101690282     5     1     4     6
 -0.0123524382     5     1     6     2
 -0.0013349439     5     1     6     4
 -0.0063091385     5     1     6     6
 0.0014585210     5     1     7     3
 0.0141162996     5     1     7     5
 -0.0057979292     5     1     7     7
 0.0359999069     5     2     1     4
 0.0556168719     5     2     1     6
 -0.0003574690     5     2     2     1
 -0.0074667999     5     2     2     3
 -0.1824690908     5     2     2     5
 0.0082986953     5     2     2     7
 -0.0554780214     5     2     3     4
 -0.0332656284     5     2     3     6
 -0.0149359461     5     2     4     1
 -0.0290165982     5     2     4     3
 -0.0041581677     5     2     4     5
 0.0038554422     5     2     4     7
 0.0123524382     5     2     6     1
 0.0184357066     5     2     6     3
 -0.0069408744     5     2     6     5
 -0.0030032228     5     2     6     7
 -0.0103659138     5     2     7     4
 -0.0132952736     5     2     7     6
 0.0322264633     5     3     1     1
 -0.0018827661     5     3     1     5
 -0.0001235039     5     3     1     7
 0.0074667999     5     3     2     2
 -0.0301154662     5     3     2     4
 -0.0508531814     5     3     2     6
 0.0324426024     5     3     3     1
 -0.1730836595     5     3     3     5
 0.0021774872     5     3     3     7
 0.0290165982     5     3     4     2
 0.0618255250     5     3     4     4
 0.0088449492     5     3     4     6
 -0.0184357066     5     3     6     2
 -0.0426461427     5     3     6     4
 0.0109424086     5     3     6     6
 -0.0014585210     5     3     7     1
 -0.0089914322     5     3     7     5
 0.0177806765     5     3     7     7
 -0.0359999069     5     4     1     2
 0.0116404761     5     4     1     6
 -0.0502397828     5     4     2     1
 0.0301154662     5     4     2     3
 -0.0041581677     5     4     2     5
 0.0142359616     5     4     2     7
 0.0554780214     5     4     3     2
 0.0514466376     5     4     3     6
 -0.0016783540     5     4     4     1
 -0.0618255250     5     4     4     3
 -0.1419903109     5     4     4     5
 0.0039131689     5     4     4     7
 0.0013349439     5     4     6     1
 0.0426461427     5     4     6     3
 0.0586984713     5     4     6     5
 0.0048292105     5     4     6     7
 0.0103659138     5     4     7     2
 0.0126420566     5     4     7     6
 0.1874343298     5     5     1     1
 0.0018827661     5     5     1     3
 -0.0141162996     5     5     1     7
 0.1824690908     5     5     2     2
 0.0041581677     5     5     2     4
 0.0069408744     5     5     2     6
 0.0018827661     5     5     3     1
 0.1730836595     5     5     3     3
 0.0089914322     5     5     3     7
 0.0041581677     5     5     4     2
 0.1419903109     5     5     4     4
 -0.0586984713     5     5     4     6
 0.0069408744     5     5     6     2
 -0.0586984713     5     5     6     4
 0.1437924963     5     5     6     6
 -0.0141162996     5     5     7     1
 0.0089914322     5     5     7     3
 0.1650497186     5     5     7     7
 -0.0556168719     5     6     1     2
 -0.0116404761     5     6     1     4
 -0.0455515426     5     6     2     1
 0.0508531814     5     6     2     3
 -0.0069408744     5     6     2     5
 0.0103377679     5     6     2     7
 0.0332656284     5     6     3     2
 -0.0514466376     5     6     3     4
 -0.0101690282     5     6     4     1
 -0.0088449492     5     6     4     3
 0.0586984713     5     6     4     5
 -0.0078128461     5     6     4     7
 0.0063091385     5     6     6     1
 -0.0109424086     5     6     6     3
 -0.1437924963     5     6     6     5
 0.0165701628     5     6     6     7
 0.0132952736     5     6     7     2
 -0.0126420566     5     6     7     4
 -0.0108440613     5     7     1     1
 0.0001235039     5     7     1     3
 0.0141162996     5     7     1     5
 -0.0082986953     5     7     2     2
 -0.0142359616     5     7     2     4
 -0.0103377679     5     7     2     6
 -0.0015361300     5     7     3     1
 -0.0021774872     5     7     3     3
 -0.0089914322     5     7     3     5
 -0.0038554422     5     7     4     2
 -0.0039131689     5     7     4     4
 0.0078128461     5     7     4     6
 0.0030032228     5     7     6     2
 -0.0048292105     5     7     6     4
 -0.0165701628     5     7     6     6
 0.0057979292     5     7     7     1
 -0.0177806765     5     7     7     3
 -0.1650497186     5     7     7     5
 -0.0088377703     6     1     1     2
 0.0391258110     6     1     1     4
 -0.2149344078     6     1     1     6
 0.0219333610     6     1     2     3
 0.0556168719     6     1     2     5
 0.0059275213     6     1     2     7
 0.0059344808     6     1     3     2
 0.0352388890     6     1     3     4
 -0.0221688142     6     1     3     6
 0.0227140343     6     1     4     3
 0.0116404761     6     1     4     5
 -0.0007832652     6     1     4     7
 0.0123524382     6     1     5     2
 0.0013349439     6     1     5     4
 0.0063091385     6     1     5     6
 -0.0010778727     6     1     7     2
 -0.0030637460     6     1     7     4
 0.0155654251     6     1     7     6
 0.0088377703     6     2     1     1
 0.0160019645     6     2     1     3
 0.0455515426     6     2     1     5
 0.0063730194     6     2     1     7
 0.0076449785     6     2     2     4
 -0.1874658420     6     2     2     6
 -0.0059344808     6     2     3     1
 -0.0045245001     6     2     3     3
 -0.0508531814     6     2     3     5
 -0.0061896498     6     2     3     7
 0.0368790566     6     2     4     4
 -0.0204834685     6     2     4     6
 -0.0123524382     6     2     5     1
 -0.0184357066     6     2     5     3
 0.0069408744     6     2     5     5
 0.0030032228     6     2     5     7
 0.0010778727     6     2     7     1
 0.0006483775     6     2     7     3
 -0.0103377679     6     2     7     5
 0.0037874247     6     2     7     7
 -0.0160019645     6     3     1     2
 0.0157297417     6     3     1     4
 -0.0221688142     6     3     1     6
 -0.0219333610     6     3     2     1
 -0.0332656284     6     3     2     5
 -0.0065004320     6     3     2     7
 0.0045245001     6     3     3     2
 0.0159922920     6     3     3     4
 -0.1871687532     6     3     3     6
 -0.0227140343     6     3     4     1
 0.0514466376     6     3     4     5
 0.0073395394     6     3     4     7
 0.0184357066     6     3     5     2
 0.0426461427     6     3     5     4
 -0.0109424086     6     3     5     6
 -0.0006483775     6     3     7     2
 -0.0099927614     6     3     7     4
 0.0013084323     6     3     7     6
 -0.0391258110     6     4     1     1
 -0.0157297417     6     4     1     3
 0.0101690282     6     4     1     5
 0.0024940116     6     4     1     7
 -0.0076449785     6     4     2     2
 -0.0204834685     6     4     2     6
 -0.0352388890     6     4     3     1
 -0.0159922920     6     4     3     3
 0.0088449492     6     4     3     5
 0.0174098265     6     4     3     7
 -0.0368790566     6     4     4     2
 -0.1704737911     6     4     4     6
 -0.0013349439     6     4     5     1
 -0.0426461427     6     4     5     3
 -0.0586984713     6     4     5     5
 -0.0048292105     6     4     5     7
 0.0030637460     6     4     7     1
 0.0099927614     6     4     7     3
 0.0078128461     6     4     7     5
 -0.0203742851     6     4     7     7
 -0.0455515426     6     5     1     2
 -0.0101690282     6     5     1     4
 0.0063091385     6     5     1     6
 -0.0556168719     6     5     2     1
 0.0332656284     6     5     2     3
 0.0132952736     6     5     2     7
 0.0508531814     6     5     3     2
 -0.0088449492     6     5     3     4
 -0.0109424086     6     5     3     6
 -0.0116404761     6     5     4     1
 -0.0514466376     6     5     4     3
 -0.0126420566     6     5     4     7
 -0.0069408744     6     5     5     2
 0.0586984713     6     5     5     4
 -0.1437924963     6     5     5     6
 0.0103377679     6     5     7     2
 -0.0078128461     6     5     7     4
 0.0165701628     6     5     7     6
 0.2149344078     6     6     1     1
 0.0221688142     6     6     1     3
 -0.0063091385     6     6     1     5
 -0.0155654251     6     6     1     7
 0.1874658420     6     6     2     2
 0.0204834685     6     6     2     4
 0.0221688142     6     6     3     1
 0.1871687532     6     6     3     3
 0.0109424086     6     6     3     5
 -0.0013084323     6     6     3     7
 0.0204834685     6     6     4     2
 0.1704737911     6     6     4     4
 -0.0063091385     6     6     5     1
 0.0109424086     6     6     5     3
 0.1437924963     6     6     5     5
 -0.0165701628     6     6     5     7
 -0.0155654251     6     6     7     1
 -0.0013084323     6     6     7     3
 -0.0165701628     6     6     7     5
 0.1723086682     6     6     7     7
 -0.0063730194     6     7     1     2
 -0.0024940116     6     7     1     4
 0.0155654251     6     7     1     6
 -0.0059275213     6     7     2     1
 0.0065004320     6     7     2     3
 -0.0132952736     6     7     2     5
 0.0061896498     6     7     3     2
 -0.0174098265     6     7     3     4
 0.0013084323     6     7     3     6
 0.0007832652     6     7     4     1
 -0.0073395394     6     7     4     3
 0.0126420566     6     7     4     5
 -0.0030032228     6     7     5     2
 0.0048292105     6     7     5     4
 0.0165701628     6     7     5     6
 -0.0037874247     6     7     7     2
 0.0203742851     6     7     7     4
 -0.1723086682     6     7     7     6
 0.0017163333     7     1     1     3
 0.0108440613     7     1     1     5
 -0.1879201067     7     1     1     7