&FCI NORB= 16,NELEC= 10,MS2=0,
 ORBSYM=1,1,1,1,1,1,1,1,1,1,1,1,1,1,1,1
 ISYM=1,
&END
 0.9839562033     1     1     2     2
 0.0690214922     1     1     2     4
 -0.1513624578     1     1     2     6
 -0.1202144342     1     1     2     9
 0.0395936758     1     1     2    10
 -0.0704639782     1     1     2    12
 0.1882781114     1     1     2    16
 0.8665397286     1     1     3     3
 0.1843429614     1     1     3     7
 0.1106334717     1     1     3     8
 0.2595480730     1     1     3    13
 0.0690214922     1     1     4     2
 0.9528880121     1     1     4     4
 0.0824708824     1     1     4     6
 0.0652757894     1     1     4     9
 -0.2766595993     1     1     4    10
 0.0417832241     1     1     4    12
 0.1866815182     1     1     4    16
 1.0032811072     1     1     5     5
 -0.3574503853     1     1     5    11
 0.0257212320     1     1     5    15
 -0.1513624578     1     1     6     2
 0.0824708824     1     1     6     4
 0.3479283623     1     1     6     6
 0.1073134943     1     1     6     9
 -0.0899205834     1     1     6    10
 0.0571829343     1     1     6    12
 -0.0725831003     1     1     6    16
 0.1843429614     1     1     7     3
 0.3254426886     1     1     7     7
 0.0989490383     1     1     7     8
 0.1676070434     1     1     7    13
 0.1106334717     1     1     8     3
 0.0989490383     1     1     8     7
 0.4548778217     1     1     8     8
 0.0846192182     1     1     8    13
 -0.1202144342     1     1     9     2
 0.0652757894     1     1     9     4
 0.1073134943     1     1     9     6
 0.4548194401     1     1     9     9
 -0.0559252316     1     1     9    10
 0.0197015069     1     1     9    12
 -0.0005906565     1     1     9    16
 0.0395936758     1     1    10     2
 -0.2766595993     1     1    10     4
 -0.0899205834     1     1    10     6
 -0.0559252316     1     1    10     9
 0.5357952224     1     1    10    10
 -0.0456891400     1     1    10    12
 -0.1091322114     1     1    10    16
 -0.3574503853     1     1    11     5
 0.6616184627     1     1    11    11
 -0.0300006616     1     1    11    15
 -0.0704639782     1     1    12     2
 0.0417832241     1     1    12     4
 0.0571829343     1     1    12     6
 0.0197015069     1     1    12     9
 -0.0456891400     1     1    12    10
 0.4317491124     1     1    12    12
 -0.0003646300     1     1    12    16
 0.2595480730     1     1    13     3
 0.1676070434     1     1    13     7
 0.0846192182     1     1    13     8
 0.5460581782     1     1    13    13
 0.4176423877     1     1    14    14
 0.0257212320     1     1    15     5
 -0.0300006616     1     1    15    11
 0.4167595070     1     1    15    15
 0.1882781114     1     1    16     2
 0.1866815182     1     1    16     4
 -0.0725831003     1     1    16     6
 -0.0005906565     1     1    16     9
 -0.1091322114     1     1    16    10
 -0.0003646300     1     1    16    12
 0.6151115380     1     1    16    16
 -0.9839562033     1     2     2     1
 -0.0070000540     1     2     2     4
 -0.0017093656     1     2     2     6
 -0.0020201060     1     2     2     9
 0.0056425340     1     2     2    10
 -0.0015323140     1     2     2    12
 -0.0026799594     1     2     2    16
 0.0307541625     1     2     3     3
 0.0133705797     1     2     3     7
 0.0118447245     1     2     3     8
 0.0241989635     1     2     3    13
 -0.0690214922     1     2     4     1
 0.0360248622     1     2     4     4
 0.0073754980     1     2     4     6
 0.0079930884     1     2     4     9
 -0.0228385250     1     2     4    10
 0.0060346227     1     2     4    12
 0.0130243835     1     2     4    16
 0.0412377082     1     2     5     5
 -0.0296038662     1     2     5    11
 0.0034128639     1     2     5    15
 0.1513624578     1     2     6     1
 0.0072880982     1     2     6     4
 0.0017125905     1     2     6     6
 0.0020992366     1     2     6     9
 -0.0051478129     1     2     6    10
 0.0014332704     1     2     6    12
 0.0025443076     1     2     6    16
 0.0101364531     1     2     7     3
 0.0048882822     1     2     7     7
 0.0043202182     1     2     7     8
 0.0091707348     1     2     7    13
 0.0081083106     1     2     8     3
 0.0038362209     1     2     8     7
 0.0034039706     1     2     8     8
 0.0065849788     1     2     8    13
 0.1202144342     1     2     9     1
 0.0070854071     1     2     9     4
 0.0018423974     1     2     9     6
 0.0016672854     1     2     9     9
 -0.0052476667     1     2     9    10
 0.0013919766     1     2     9    12
 0.0027161879     1     2     9    16
 -0.0395936758     1     2    10     1
 -0.0175303696     1     2    10     4
 -0.0036982944     1     2    10     6
 -0.0043446145     1     2    10     9
 0.0133934258     1     2    10    10
 -0.0026865293     1     2    10    12
 -0.0080292664     1     2    10    16
 -0.0223112504     1     2    11     5
 0.0190153920     1     2    11    11
 -0.0015962397     1     2    11    15
 0.0704639782     1     2    12     1
 0.0043840238     1     2    12     4
 0.0009757559     1     2    12     6
 0.0010854198     1     2    12     9
 -0.0025016916     1     2    12    10
 0.0006427691     1     2    12    12
 0.0012692220     1     2    12    16
 0.0161361199     1     2    13     3
 0.0081017663     1     2    13     7
 0.0065666508     1     2    13     8
 0.0150074052     1     2    13    13
 -0.0003219622     1     2    14    14
 0.0017743726     1     2    15     5
 -0.0008283791     1     2    15    11
 0.0000407706     1     2    15    15
 -0.1882781114     1     2    16     1
 0.0083982378     1     2    16     4
 0.0014061569     1     2    16     6
 0.0017575832     1     2    16     9
 -0.0065156864     1     2    16    10
 0.0009964327     1     2    16    12
 0.0052808081     1     2    16    16
 0.0025627292     1     3     2     7
 0.0032177704     1     3     2     8
 0.0069951782     1     3     2    13
 -0.8665397286     1     3     3     1
 -0.0307541625     1     3     3     2
 -0.0105417799     1     3     3     4
 0.0045771539     1     3     3     6
 0.0002390555     1     3     3     9
 0.0025016350     1     3     3    10
 0.0049754932     1     3     3    12
 -0.0139642763     1     3     3    16
 -0.0013201886     1     3     4     7
 -0.0050087716     1     3     4     8
 -0.0003195547     1     3     4    13
 0.0043227541     1     3     5    14
 0.0021047382     1     3     6     7
 -0.0004235335     1     3     6     8
 0.0019084734     1     3     6    13
 -0.1843429614     1     3     7     1
 -0.0101364531     1     3     7     2
 -0.0033482246     1     3     7     4
 0.0046139809     1     3     7     6
 0.0026343812     1     3     7     9
 -0.0002574018     1     3     7    10
 0.0017089192     1     3     7    12
 -0.0053519454     1     3     7    16
 -0.1106334717     1     3     8     1
 -0.0081083106     1     3     8     2
 -0.0024489511     1     3     8     4
 0.0028170285     1     3     8     6
 0.0047005015     1     3     8     9
 -0.0039375947     1     3     8    10
 0.0035249136     1     3     8    12
 -0.0027114342     1     3     8    16
 0.0019866534     1     3     9     7
 0.0029045274     1     3     9     8
 0.0049705120     1     3     9    13
 0.0001975536     1     3    10     7
 -0.0005277781     1     3    10     8
 0.0012489275     1     3    10    13
 0.0007813017     1     3    11    14
 -0.0008388539     1     3    12     7
 0.0006273988     1     3    12     8
 -0.0013212699     1     3    12    13
 -0.2595480730     1     3    13     1
 -0.0161361199     1     3    13     2
 -0.0053823612     1     3    13     4
 0.0062482123     1     3    13     6
 0.0058924594     1     3    13     9
 0.0012705002     1     3    13    10
 0.0031513165     1     3    13    12
 -0.0118313525     1     3    13    16
 -0.0004445113     1     3    14     5
 0.0044935269     1     3    14    11
 -0.0036681548     1     3    14    15
 -0.0033356304     1     3    15    14
 -0.0001174373     1     3    16     7
 0.0002704515     1     3    16     8
 -0.0016930436     1     3    16    13
 -0.0690214922     1     4     2     1
 0.0070000540     1     4     2     2
 -0.0003974193     1     4     2     6
 0.0004782023     1     4     2     9
 -0.0041729942     1     4     2    10
 0.0013533386     1     4     2    12
 0.0040807444     1     4     2    16
 0.0105417799     1     4     3     3
 0.0022062454     1     4     3     7
 -0.0024773736     1     4     3     8
 0.0053510383     1     4     3    13
 -0.9528880121     1     4     4     1
 -0.0360248622     1     4     4     2
 0.0092039461     1     4     4     6
 0.0096273950     1     4     4     9
 -0.0063822147     1     4     4    10
 0.0003173423     1     4     4    12
 -0.0119779137     1     4     4    16
 0.0138248862     1     4     5     5
 -0.0090167803     1     4     5    11
 -0.0036895775     1     4     5    15
 -0.0824708824     1     4     6     1
 -0.0072880982     1     4     6     2
 0.0041454722     1     4     6     6
 0.0029213454     1     4     6     9
 -0.0038048654     1     4     6    10
 0.0011490420     1     4     6    12
 -0.0023042386     1     4     6    16
 0.0033482246     1     4     7     3
 0.0027499350     1     4     7     7
 0.0011684865     1     4     7     8
 0.0035327728     1     4     7    13
 0.0024489511     1     4     8     3
 0.0029095780     1     4     8     7
 0.0028564837     1     4     8     8
 0.0071974717     1     4     8    13
 -0.0652757894     1     4     9     1
 -0.0070854071     1     4     9     2
 0.0030130385     1     4     9     6
 0.0060425979     1     4     9     9
 -0.0020207411     1     4     9    10
 0.0007528259     1     4     9    12
 -0.0029138363     1     4     9    16
 0.2766595993     1     4    10     1
 0.0175303696     1     4    10     2
 -0.0083869057     1     4    10     6
 -0.0067699482     1     4    10     9
 0.0030053359     1     4    10    10
 -0.0048083193     1     4    10    12
 0.0099956615     1     4    10    16
 -0.0074945435     1     4    11     5
 0.0064808059     1     4    11    11
 -0.0012378059     1     4    11    15
 -0.0417832241     1     4    12     1
 -0.0043840238     1     4    12     2
 0.0027038442     1     4    12     6
 0.0023358648     1     4    12     9
 -0.0058286957     1     4    12    10
 0.0034830995     1     4    12    12
 0.0007980453     1     4    12    16
 0.0053823612     1     4    13     3
 0.0026207817     1     4    13     7
 0.0032570723     1     4    13     8
 0.0039387955     1     4    13    13
 0.0034890768     1     4    14    14
 0.0008714881     1     4    15     5
 -0.0048855444     1     4    15    11
 0.0022715975     1     4    15    15
 -0.1866815182     1     4    16     1
 -0.0083982378     1     4    16     2
 0.0034751370     1     4    16     6
 0.0033032054     1     4    16     9
 -0.0000569877     1     4    16    10
 0.0028298711     1     4    16    12
 -0.0061700421     1     4    16    16
 -0.0058631067     1     5     2    11
 0.0015310529     1     5     2    15
 0.0049365199     1     5     3    14
 -0.0011194530     1     5     4    11
 -0.0047192472     1     5     4    15
 -1.0032811072     1     5     5     1
 -0.0412377082     1     5     5     2
 -0.0138248862     1     5     5     4
 0.0090069035     1     5     5     6
 0.0119344981     1     5     5     9
 0.0028807631     1     5     5    10
 0.0065781223     1     5     5    12
 -0.0125701443     1     5     5    16
 -0.0023186514     1     5     6    11
 -0.0003874736     1     5     6    15
 0.0000335540     1     5     7    14
 0.0004792396     1     5     8    14
 0.0023587054     1     5     9    11
 0.0004510231     1     5     9    15
 0.0016461407     1     5    10    11
 0.0002839476     1     5    10    15
 0.3574503853     1     5    11     1
 0.0223112504     1     5    11     2
 0.0074945435     1     5    11     4
 -0.0090727079     1     5    11     6
 -0.0066620687     1     5    11     9
 0.0001059947     1     5    11    10
 -0.0040276703     1     5    11    12
 0.0166008058     1     5    11    16
 0.0009519752     1     5    12    11
 -0.0006620981     1     5    12    15
 0.0003159374     1     5    13    14
 0.0004445113     1     5    14     3
 -0.0018923439     1     5    14     7
 -0.0010840316     1     5    14     8
 -0.0031943900     1     5    14    13
 -0.0257212320     1     5    15     1
 -0.0017743726     1     5    15     2
 -0.0008714881     1     5    15     4
 0.0013993541     1     5    15     6
 0.0024895037     1     5    15     9
 -0.0027645225     1     5    15    10
 0.0005686857     1     5    15    12
 0.0019673238     1     5    15    16
 0.0080545674     1     5    16    11
 0.0012732251     1     5    16    15
 0.1513624578     1     6     2     1
 0.0017093656     1     6     2     2
 0.0003974193     1     6     2     4
 0.0002798628     1     6     2     9
 -0.0014574267     1     6     2    10
 0.0004619206     1     6     2    12
 0.0010760394     1     6     2    16
 -0.0045771539     1     6     3     3
 -0.0025475289     1     6     3     7
 -0.0033096133     1     6     3     8
 -0.0044262968     1     6     3    13
 -0.0824708824     1     6     4     1
 -0.0073754980     1     6     4     2
 -0.0092039461     1     6     4     4
 -0.0000908081     1     6     4     9
 0.0046523322     1     6     4    10
 -0.0015770463     1     6     4    12
 -0.0058969721     1     6     4    16
 -0.0090069035     1     6     5     5
 0.0068196175     1     6     5    11
 -0.0018105413     1     6     5    15
 -0.3479283623     1     6     6     1
 -0.0017125905     1     6     6     2
 -0.0041454722     1     6     6     4
 -0.0003842961     1     6     6     9
 0.0018933644     1     6     6    10
 -0.0004321334     1     6     6    12
 -0.0019241781     1     6     6    16
 -0.0046139809     1     6     7     3
 -0.0017929195     1     6     7     7
 -0.0017688417     1     6     7     8
 -0.0036056986     1     6     7    13
 -0.0028170285     1     6     8     3
 -0.0008570008     1     6     8     7
 -0.0006314101     1     6     8     8
 -0.0010762973     1     6     8    13
 -0.1073134943     1     6     9     1
 -0.0018423974     1     6     9     2
 -0.0030130385     1     6     9     4
 0.0006867500     1     6     9     9
 0.0016028837     1     6     9    10
 -0.0003448492     1     6     9    12
 -0.0017265379     1     6     9    16
 0.0899205834     1     6    10     1
 0.0036982944     1     6    10     2
 0.0083869057     1     6    10     4
 0.0005804071     1     6    10     9
 -0.0051697333     1     6    10    10
 0.0002413905     1     6    10    12
 0.0054118086     1     6    10    16
 0.0090727079     1     6    11     5
 -0.0068935924     1     6    11    11
 0.0004490668     1     6    11    15
 -0.0571829343     1     6    12     1
 -0.0009757559     1     6    12     2
 -0.0027038442     1     6    12     4
 -0.0001415620     1     6    12     9
 0.0003922336     1     6    12    10
 0.0003839543     1     6    12    12
 -0.0006873465     1     6    12    16
 -0.0062482123     1     6    13     3
 -0.0028405278     1     6    13     7
 -0.0021022633     1     6    13     8
 -0.0054154304     1     6    13    13
 0.0008577927     1     6    14    14
 -0.0013993541     1     6    15     5
 -0.0000001806     1     6    15    11
 0.0004305711     1     6    15    15
 0.0725831003     1     6    16     1
 -0.0014061569     1     6    16     2
 -0.0034751370     1     6    16     4
 -0.0001323795     1     6    16     9
 0.0024994869     1     6    16    10
 0.0001050584     1     6    16    12
 -0.0029163862     1     6    16    16
 -0.0025627292     1     7     2     3
 0.0004881452     1     7     2     8
 0.0010456760     1     7     2    13
 -0.1843429614     1     7     3     1
 -0.0133705797     1     7     3     2
 -0.0022062454     1     7     3     4
 0.0025475289     1     7     3     6
 0.0006614222     1     7     3     9
 -0.0004838589     1     7     3    10
 0.0025952470     1     7     3    12
 -0.0053297966     1     7     3    16
 0.0013201886     1     7     4     3
 -0.0017703263     1     7     4     8
 0.0009222863     1     7     4    13
 0.0019526960     1     7     5    14
 -0.0021047382     1     7     6     3
 -0.0009095108     1     7     6     8
 -0.0007606951     1     7     6    13
 -0.3254426886     1     7     7     1
 -0.0048882822     1     7     7     2
 -0.0027499350     1     7     7     4
 0.0017929195     1     7     7     6
 0.0009378865     1     7     7     9
 0.0006046535     1     7     7    10
 0.0005959232     1     7     7    12
 -0.0028088914     1     7     7    16
 -0.0989490383     1     7     8     1
 -0.0038362209     1     7     8     2
 -0.0029095780     1     7     8     4
 0.0008570008     1     7     8     6
 0.0016281824     1     7     8     9
 -0.0005615018     1     7     8    10
 0.0012708274     1     7     8    12
 -0.0018368183     1     7     8    16
 -0.0019866534     1     7     9     3
 0.0005482872     1     7     9     8
 0.0006046878     1     7     9    13
 -0.0001975536     1     7    10     3
 -0.0003037253     1     7    10     8
 0.0003778530     1     7    10    13
 0.0003355523     1     7    11    14
 0.0008388539     1     7    12     3
 0.0005672516     1     7    12     8
 0.0000678842     1     7    12    13
 -0.1676070434     1     7    13     1
 -0.0081017663     1     7    13     2
 -0.0026207817     1     7    13     4
 0.0028405278     1     7    13     6
 0.0026803581     1     7    13     9
 0.0005296521     1     7    13    10
 0.0014410616     1     7    13    12
 -0.0053612781     1     7    13    16
 0.0018923439     1     7    14     5
 0.0003862457     1     7    14    11
 -0.0014343059     1     7    14    15
 -0.0014316174     1     7    15    14
 0.0001174373     1     7    16     3
 0.0001579129     1     7    16     8
 -0.0006199631     1     7    16    13
 -0.0032177704     1     8     2     3
 -0.0004881452     1     8     2     7
 -0.0000124202     1     8     2    13
 -0.1106334717     1     8     3     1
 -0.0118447245     1     8     3     2
 0.0024773736     1     8     3     4
 0.0033096133     1     8     3     6
 0.0018623053     1     8     3     9
 -0.0034671394     1     8     3    10
 0.0029494416     1     8     3    12
 -0.0030944494     1     8     3    16
 0.0050087716     1     8     4     3
 0.0017703263     1     8     4     7
 0.0039902054     1     8     4    13
 0.0015790396     1     8     5    14
 0.0004235335     1     8     6     3
 0.0009095108     1     8     6     7
 0.0010254591     1     8     6    13
 -0.0989490383     1     8     7     1
 -0.0043202182     1     8     7     2
 -0.0011684865     1     8     7     4
 0.0017688417     1     8     7     6
 0.0010818219     1     8     7     9
 -0.0002617206     1     8     7    10
 0.0007087610     1     8     7    12
 -0.0019971535     1     8     7    16
 -0.4548778217     1     8     8     1
 -0.0034039706     1     8     8     2
 -0.0028564837     1     8     8     4
 0.0006314101     1     8     8     6
 0.0012637856     1     8     8     9
 -0.0002123365     1     8     8    10
 0.0009588613     1     8     8    12
 -0.0016285913     1     8     8    16
 -0.0029045274     1     8     9     3
 -0.0005482872     1     8     9     7
 -0.0004771504     1     8     9    13
 0.0005277781     1     8    10     3
 0.0003037253     1     8    10     7
 0.0008260913     1     8    10    13
 0.0002355737     1     8    11    14
 -0.0006273988     1     8    12     3
 -0.0005672516     1     8    12     7
 -0.0009324614     1     8    12    13
 -0.0846192182     1     8    13     1
 -0.0065666508     1     8    13     2
 -0.0032570723     1     8    13     4
 0.0021022633     1     8    13     6
 0.0019351655     1     8    13     9
 0.0011484643     1     8    13    10
 0.0010404027     1     8    13    12
 -0.0048396632     1     8    13    16
 0.0010840316     1     8    14     5
 0.0006335671     1     8    14    11
 -0.0011785336     1     8    14    15
 -0.0011522706     1     8    15    14
 -0.0002704515     1     8    16     3
 -0.0001579129     1     8    16     7
 -0.0008087672     1     8    16    13
 0.1202144342     1     9     2     1
 0.0020201060     1     9     2     2
 -0.0004782023     1     9     2     4
 -0.0002798628     1     9     2     6
 -0.0009209122     1     9     2    10
 0.0003030237     1     9     2    12
 0.0009319237     1     9     2    16
 -0.0002390555     1     9     3     3
 -0.0006614222     1     9     3     7
 -0.0018623053     1     9     3     8
 -0.0009778212     1     9     3    13
 -0.0652757894     1     9     4     1
 -0.0079930884     1     9     4     2
 -0.0096273950     1     9     4     4
 0.0000908081     1     9     4     6
 0.0048358601     1     9     4    10
 -0.0015922303     1     9     4    12
 -0.0063708248     1     9     4    16
 -0.0119344981     1     9     5     5
 0.0091094942     1     9     5    11
 -0.0020530848     1     9     5    15
 -0.1073134943     1     9     6     1
 -0.0020992366     1     9     6     2
 -0.0029213454     1     9     6     4
 0.0003842961     1     9     6     6
 0.0010217702     1     9     6    10
 -0.0002017649     1     9     6    12
 -0.0016017047     1     9     6    16
 -0.0026343812     1     9     7     3
 -0.0009378865     1     9     7     7
 -0.0010818219     1     9     7     8
 -0.0020760366     1     9     7    13
 -0.0047005015     1     9     8     3
 -0.0016281824     1     9     8     7
 -0.0012637856     1     9     8     8
 -0.0024089525     1     9     8    13
 -0.4548194401     1     9     9     1
 -0.0016672854     1     9     9     2
 -0.0060425979     1     9     9     4
 -0.0006867500     1     9     9     6
 0.0035696023     1     9     9    10
 -0.0008234645     1     9     9    12
 -0.0027142722     1     9     9    16
 0.0559252316     1     9    10     1
 0.0043446145     1     9    10     2
 0.0067699482     1     9    10     4
 -0.0005804071     1     9    10     6
 -0.0040223288     1     9    10    10
 -0.0001034538     1     9    10    12
 0.0051194247     1     9    10    16
 0.0066620687     1     9    11     5
 -0.0051330013     1     9    11    11
 0.0003237903     1     9    11    15
 -0.0197015069     1     9    12     1
 -0.0010854198     1     9    12     2
 -0.0023358648     1     9    12     4
 0.0001415620     1     9    12     6
 0.0000726042     1     9    12    10
 0.0004881143     1     9    12    12
 -0.0005867576     1     9    12    16
 -0.0058924594     1     9    13     3
 -0.0026803581     1     9    13     7
 -0.0019351655     1     9    13     8
 -0.0051155685     1     9    13    13
 0.0009006747     1     9    14    14
 -0.0024895037     1     9    15     5
 0.0007578846     1     9    15    11
 0.0003933829     1     9    15    15
 0.0005906565     1     9    16     1
 -0.0017575832     1     9    16     2
 -0.0033032054     1     9    16     4
 0.0001323795     1     9    16     6
 0.0023753457     1     9    16    10
 0.0001846079     1     9    16    12
 -0.0029789391     1     9    16    16
 -0.0395936758     1    10     2     1
 -0.0056425340     1    10     2     2
 0.0041729942     1    10     2     4
 0.0014574267     1    10     2     6
 0.0009209122     1    10     2     9
 -0.0001518851     1    10     2    12
 -0.0015811633     1    10     2    16
 -0.0025016350     1    10     3     3
 0.0004838589     1    10     3     7
 0.0034671394     1    10     3     8
 -0.0000187945     1    10     3    13
 0.2766595993     1    10     4     1
 0.0228385250     1    10     4     2
 0.0063822147     1    10     4     4
 -0.0046523322     1    10     4     6
 -0.0048358601     1    10     4     9
 0.0009929803     1    10     4    12
 0.0102583391     1    10     4    16
 -0.0028807631     1    10     5     5
 0.0015364286     1    10     5    11
 0.0030725795     1    10     5    15
 0.0899205834     1    10     6     1
 0.0051478129     1    10     6     2
 0.0038048654     1    10     6     4
 -0.0018933644     1    10     6     6
 -0.0010217702     1    10     6     9
 -0.0001537693     1    10     6    12
 0.0029103239     1    10     6    16
 0.0002574018     1    10     7     3
 -0.0006046535     1    10     7     7
 0.0002617206     1    10     7     8
 -0.0001488500     1    10     7    13
 0.0039375947     1    10     8     3
 0.0005615018     1    10     8     7
 0.0002123365     1    10     8     8
 -0.0003180535     1    10     8    13
 0.0559252316     1    10     9     1
 0.0052476667     1    10     9     2
 0.0020207411     1    10     9     4
 -0.0016028837     1    10     9     6
 -0.0035696023     1    10     9     9
 -0.0001799050     1    10     9    12
 0.0027401651     1    10     9    16
 -0.5357952224     1    10    10     1
 -0.0133934258     1    10    10     2
 -0.0030053359     1    10    10     4
 0.0051697333     1    10    10     6
 0.0040223288     1    10    10     9
 0.0028517071     1    10    10    12
 -0.0081767751     1    10    10    16
 -0.0001059947     1    10    11     5
 -0.0000907582     1    10    11    11
 0.0004395225     1    10    11    15
 0.0456891400     1    10    12     1
 0.0025016916     1    10    12     2
 0.0058286957     1    10    12     4
 -0.0003922336     1    10    12     6
 -0.0000726042     1    10    12     9
 -0.0013185422     1    10    12    12
 0.0014224486     1    10    12    16
 -0.0012705002     1    10    13     3
 -0.0005296521     1    10    13     7
 -0.0011484643     1    10    13     8
 -0.0003780095     1    10    13    13
 -0.0023029876     1    10    14    14
 0.0027645225     1    10    15     5
 0.0007482425     1    10    15    11
 -0.0012514160     1    10    15    15
 0.1091322114     1    10    16     1
 0.0065156864     1    10    16     2
 0.0000569877     1    10    16     4
 -0.0024994869     1    10    16     6
 -0.0023753457     1    10    16     9
 -0.0019796329     1    10    16    12
 0.0045492689     1    10    16    16
 0.0058631067     1    11     2     5
 -0.0007600814     1    11     2    15
 -0.0037469403     1    11     3    14
 0.0011194530     1    11     4     5
 0.0036840882     1    11     4    15
 0.3574503853     1    11     5     1
 0.0296038662     1    11     5     2
 0.0090167803     1    11     5     4
 -0.0068196175     1    11     5     6
 -0.0091094942     1    11     5     9
 -0.0015364286     1    11     5    10
 -0.0050537371     1    11     5    12
 0.0087785334     1    11     5    16
 0.0023186514     1    11     6     5
 0.0004459756     1    11     6    15
 -0.0000519979     1    11     7    14
 -0.0003999582     1    11     8    14
 -0.0023587054     1    11     9     5
 -0.0004378508     1    11     9    15
 -0.0016461407     1    11    10     5
 -0.0003069523     1    11    10    15
 -0.6616184627     1    11    11     1
 -0.0190153920     1    11    11     2
 -0.0064808059     1    11    11     4
 0.0068935924     1    11    11     6
 0.0051330013     1    11    11     9
 0.0000907582     1    11    11    10
 0.0030832583     1    11    11    12
 -0.0128503805     1    11    11    16
 -0.0009519752     1    11    12     5
 0.0004438045     1    11    12    15
 -0.0002321068     1    11    13    14
 -0.0044935269     1    11    14     3
 -0.0003862457     1    11    14     7
 -0.0006335671     1    11    14     8
 -0.0008030454     1    11    14    13
 0.0300006616     1    11    15     1
 0.0008283791     1    11    15     2
 0.0048855444     1    11    15     4
 0.0000001806     1    11    15     6
 -0.0007578846     1    11    15     9
 -0.0007482425     1    11    15    10
 0.0002609273     1    11    15    12
 -0.0000869497     1    11    15    16
 -0.0080545674     1    11    16     5
 -0.0014325735     1    11    16    15
 0.0704639782     1    12     2     1
 0.0015323140     1    12     2     2
 -0.0013533386     1    12     2     4
 -0.0004619206     1    12     2     6
 -0.0003030237     1    12     2     9
 0.0001518851     1    12     2    10
 0.0002811488     1    12     2    16
 -0.0049754932     1    12     3     3
 -0.0025952470     1    12     3     7
 -0.0029494416     1    12     3     8
 -0.0045578453     1    12     3    13
 -0.0417832241     1    12     4     1
 -0.0060346227     1    12     4     2
 -0.0003173423     1    12     4     4
 0.0015770463     1    12     4     6
 0.0015922303     1    12     4     9
 -0.0009929803     1    12     4    10
 -0.0021118924     1    12     4    16
 -0.0065781223     1    12     5     5
 0.0050537371     1    12     5    11
 -0.0012364379     1    12     5    15
 -0.0571829343     1    12     6     1
 -0.0014332704     1    12     6     2
 -0.0011490420     1    12     6     4
 0.0004321334     1    12     6     6
 0.0002017649     1    12     6     9
 0.0001537693     1    12     6    10
 -0.0007956365     1    12     6    16
 -0.0017089192     1    12     7     3
 -0.0005959232     1    12     7     7
 -0.0007087610     1    12     7     8
 -0.0013778426     1    12     7    13
 -0.0035249136     1    12     8     3
 -0.0012708274     1    12     8     7
 -0.0009588613     1    12     8     8
 -0.0019678055     1    12     8    13
 -0.0197015069     1    12     9     1
 -0.0013919766     1    12     9     2
 -0.0007528259     1    12     9     4
 0.0003448492     1    12     9     6
 0.0008234645     1    12     9     9
 0.0001799050     1    12     9    10
 -0.0007741566     1    12     9    16
 0.0456891400     1    12    10     1
 0.0026865293     1    12    10     2
 0.0048083193     1    12    10     4
 -0.0002413905     1    12    10     6
 0.0001034538     1    12    10     9
 -0.0028517071     1    12    10    10
 0.0034089816     1    12    10    16
 0.0040276703     1    12    11     5
 -0.0030832583     1    12    11    11
 0.0001872099     1    12    11    15
 -0.4317491124     1    12    12     1
 -0.0006427691     1    12    12     2
 -0.0034830995     1    12    12     4
 -0.0003839543     1    12    12     6