&FCI NORB= 11,NELEC= 10,MS2=0,
 ORBSYM=1,1,1,1,1,1,1,1,1,1,1
 ISYM=1,
&END
 0.9852646518     1     1     2     2
 -0.0000000005     1     1     2     3
 0.0672169680     1     1     2     4
 0.1260317322     1     1     2     6
 -0.0000000089     1     1     2     7
 -0.0000000813     1     1     2     8
 0.0716217989     1     1     2     9
 0.0764738709     1     1     2    10
 -0.0000000005     1     1     3     2
 0.8634341598     1     1     3     3
 -0.0000000129     1     1     3     4
 -0.0000000160     1     1     3     6
 -0.1452444218     1     1     3     7
 0.0795693515     1     1     3     8
 0.0000000429     1     1     3     9
 0.0000000234     1     1     3    10
 0.0672169680     1     1     4     2
 -0.0000000129     1     1     4     3
 0.9507320217     1     1     4     4
 -0.0672635642     1     1     4     6
 -0.0000000092     1     1     4     7
 0.0000000061     1     1     4     8
 0.0812954625     1     1     4     9
 -0.2119189252     1     1     4    10
 0.9999912830     1     1     5     5
 -0.2851070379     1     1     5    11
 0.1260317322     1     1     6     2
 -0.0000000160     1     1     6     3
 -0.0672635642     1     1     6     4
 0.3188325973     1     1     6     6
 0.0000000037     1     1     6     7
 -0.0000000764     1     1     6     8
 0.0410590300     1     1     6     9
 0.1073469023     1     1     6    10
 -0.0000000089     1     1     7     2
 -0.1452444218     1     1     7     3
 -0.0000000092     1     1     7     4
 0.0000000037     1     1     7     6
 0.2853585998     1     1     7     7
 -0.0693080304     1     1     7     8
 -0.0000000474     1     1     7     9
 -0.0000000160     1     1     7    10
 -0.0000000813     1     1     8     2
 0.0795693515     1     1     8     3
 0.0000000061     1     1     8     4
 -0.0000000764     1     1     8     6
 -0.0693080304     1     1     8     7
 0.3904959341     1     1     8     8
 0.0000000108     1     1     8     9
 -0.0000000289     1     1     8    10
 0.0716217989     1     1     9     2
 0.0000000429     1     1     9     3
 0.0812954625     1     1     9     4
 0.0410590300     1     1     9     6
 -0.0000000474     1     1     9     7
 0.0000000108     1     1     9     8
 0.3709814115     1     1     9     9
 0.0019443452     1     1     9    10
 0.0764738709     1     1    10     2
 0.0000000234     1     1    10     3
 -0.2119189252     1     1    10     4
 0.1073469023     1     1    10     6
 -0.0000000160     1     1    10     7
 -0.0000000289     1     1    10     8
 0.0019443452     1     1    10     9
 0.4686808250     1     1    10    10
 -0.2851070379     1     1    11     5
 0.5418432646     1     1    11    11
 -0.9852646518     1     2     2     1
 -0.0000000011     1     2     2     3
 0.0062040374     1     2     2     4
 -0.0010393083     1     2     2     6
 0.0000000003     1     2     2     7
 -0.0000000001     1     2     2     8
 0.0012960219     1     2     2     9
 -0.0039709877     1     2     2    10
 0.0000000005     1     2     3     1
 -0.0306609197     1     2     3     3
 0.0000000009     1     2     3     4
 0.0000000011     1     2     3     6
 0.0109000838     1     2     3     7
 -0.0090117408     1     2     3     8
 -0.0000000056     1     2     3     9
 -0.0000000029     1     2     3    10
 -0.0672169680     1     2     4     1
 0.0000000008     1     2     4     3
 -0.0361113120     1     2     4     4
 0.0064311609     1     2     4     6
 0.0000000005     1     2     4     7
 -0.0000000024     1     2     4     8
 -0.0046053268     1     2     4     9
 0.0184500670     1     2     4    10
 -0.0411294851     1     2     5     5
 0.0241604990     1     2     5    11
 -0.1260317322     1     2     6     1
 0.0000000006     1     2     6     3
 0.0061060269     1     2     6     4
 -0.0015121017     1     2     6     6
 -0.0000000005     1     2     6     7
 0.0000000010     1     2     6     8
 0.0007041923     1     2     6     9
 -0.0040079165     1     2     6    10
 0.0000000089     1     2     7     1
 0.0080723544     1     2     7     3
 0.0000000003     1     2     7     4
 -0.0000000006     1     2     7     6
 -0.0035982665     1     2     7     7
 0.0029362959     1     2     7     8
 0.0000000019     1     2     7     9
 0.0000000006     1     2     7    10
 0.0000000813     1     2     8     1
 -0.0060047422     1     2     8     3
 -0.0000000026     1     2     8     4
 0.0000000011     1     2     8     6
 0.0026140674     1     2     8     7
 -0.0022545108     1     2     8     8
 -0.0000000018     1     2     8     9
 0.0000000011     1     2     8    10
 -0.0716217989     1     2     9     1
 -0.0000000037     1     2     9     3
 -0.0028661531     1     2     9     4
 0.0003073254     1     2     9     6
 0.0000000017     1     2     9     7
 -0.0000000016     1     2     9     8
 -0.0006380676     1     2     9     9
 0.0021130494     1     2     9    10
 -0.0764738709     1     2    10     1
 -0.0000000020     1     2    10     3
 0.0146394667     1     2    10     4
 -0.0032264976     1     2    10     6
 0.0000000005     1     2    10     7
 0.0000000005     1     2    10     8
 0.0027367323     1     2    10     9
 -0.0099440550     1     2    10    10
 0.0177171074     1     2    11     5
 -0.0139688716     1     2    11    11
 0.0000000005     1     3     2     1
 0.0000000011     1     3     2     2
 0.0000000002     1     3     2     4
 0.0000000004     1     3     2     6
 0.0021430830     1     3     2     7
 -0.0025014388     1     3     2     8
 -0.0000000015     1     3     2     9
 -0.0000000007     1     3     2    10
 -0.8634341598     1     3     3     1
 0.0306609197     1     3     3     2
 0.0096018009     1     3     3     4
 0.0041956806     1     3     3     6
 -0.0000000006     1     3     3     7
 -0.0000000011     1     3     3     8
 0.0018784526     1     3     3     9
 -0.0018362114     1     3     3    10
 0.0000000129     1     3     4     1
 -0.0000000008     1     3     4     2
 0.0000000010     1     3     4     4
 -0.0000000006     1     3     4     6
 -0.0010515076     1     3     4     7
 0.0040372243     1     3     4     8
 0.0000000030     1     3     4     9
 0.0000000004     1     3     4    10
 0.0000000015     1     3     5     5
 -0.0000000012     1     3     5    11
 0.0000000160     1     3     6     1
 -0.0000000006     1     3     6     2
 -0.0000000004     1     3     6     4
 -0.0000000002     1     3     6     6
 -0.0019195351     1     3     6     7
 -0.0003274067     1     3     6     8
 -0.0000000006     1     3     6     9
 0.1452444218     1     3     7     1
 -0.0080723544     1     3     7     2
 -0.0026569770     1     3     7     4
 -0.0037194892     1     3     7     6
 0.0000000004     1     3     7     7
 0.0000000018     1     3     7     8
 -0.0018311686     1     3     7     9
 -0.0011483747     1     3     7    10
 -0.0795693515     1     3     8     1
 0.0060047422     1     3     8     2
 0.0017924071     1     3     8     4
 0.0019094520     1     3     8     6
 0.0000000012     1     3     8     7
 -0.0000000032     1     3     8     8
 0.0007549747     1     3     8     9
 0.0040371713     1     3     8    10
 -0.0000000429     1     3     9     1
 0.0000000037     1     3     9     2
 0.0000000011     1     3     9     4
 0.0000000010     1     3     9     6
 -0.0014618913     1     3     9     7
 0.0008841231     1     3     9     8
 0.0000000008     1     3     9     9
 0.0000000033     1     3     9    10
 -0.0000000234     1     3    10     1
 0.0000000020     1     3    10     2
 0.0000000007     1     3    10     6
 -0.0009183862     1     3    10     7
 0.0017423347     1     3    10     8
 0.0000000015     1     3    10     9
 0.0000000022     1     3    10    10
 -0.0000000005     1     3    11     5
 -0.0672169680     1     4     2     1
 -0.0062040374     1     4     2     2
 -0.0000000002     1     4     2     3
 -0.0001697945     1     4     2     6
 0.0000000002     1     4     2     7
 0.0000000003     1     4     2     8
 -0.0014371537     1     4     2     9
 0.0025866881     1     4     2    10
 0.0000000129     1     4     3     1
 -0.0000000009     1     4     3     2
 -0.0096018009     1     4     3     3
 -0.0000000001     1     4     3     6
 0.0017566802     1     4     3     7
 0.0021466766     1     4     3     8
 0.0000000018     1     4     3     9
 0.0000000003     1     4     3    10
 -0.9507320217     1     4     4     1
 0.0361113120     1     4     4     2
 -0.0000000010     1     4     4     3
 0.0084544562     1     4     4     6
 -0.0000000003     1     4     4     7
 -0.0000000065     1     4     4     8
 0.0050312836     1     4     4     9
 0.0087284721     1     4     4    10
 -0.0128127376     1     4     5     5
 0.0070974731     1     4     5    11
 0.0672635642     1     4     6     1
 -0.0061060269     1     4     6     2
 0.0000000004     1     4     6     3
 -0.0032703116     1     4     6     6
 -0.0000000002     1     4     6     7
 0.0000000014     1     4     6     8
 -0.0001944487     1     4     6     9
 -0.0037957640     1     4     6    10
 0.0000000092     1     4     7     1
 -0.0000000003     1     4     7     2
 0.0026569770     1     4     7     3
 -0.0000000003     1     4     7     6
 -0.0020196741     1     4     7     7
 0.0009645797     1     4     7     8
 0.0000000005     1     4     7     9
 0.0000000002     1     4     7    10
 -0.0000000061     1     4     8     1
 0.0000000026     1     4     8     2
 -0.0017924071     1     4     8     3
 0.0000000009     1     4     8     6
 0.0021727208     1     4     8     7
 -0.0013030255     1     4     8     8
 0.0000000012     1     4     8     9
 0.0000000022     1     4     8    10
 -0.0812954625     1     4     9     1
 0.0028661531     1     4     9     2
 -0.0000000011     1     4     9     3
 0.0018087442     1     4     9     6
 0.0000000014     1     4     9     7
 -0.0000000002     1     4     9     8
 -0.0005923899     1     4     9     9
 -0.0007987468     1     4     9    10
 0.2119189252     1     4    10     1
 -0.0146394667     1     4    10     2
 -0.0065862846     1     4    10     6
 0.0000000008     1     4    10     7
 0.0000000050     1     4    10     8
 -0.0045683378     1     4    10     9
 -0.0049422178     1     4    10    10
 0.0058497134     1     4    11     5
 -0.0044065286     1     4    11    11
 0.0049212597     1     5     2    11
 -0.0000000006     1     5     3    11
 0.0009100087     1     5     4    11
 -0.9999912830     1     5     5     1
 0.0411294851     1     5     5     2
 -0.0000000015     1     5     5     3
 0.0128127376     1     5     5     4
 0.0081900773     1     5     5     6
 -0.0000000003     1     5     5     7
 -0.0000000093     1     5     5     8
 0.0098474527     1     5     5     9
 0.0039952800     1     5     5    10
 -0.0021234264     1     5     6    11
 0.0000000001     1     5     7    11
 -0.0000000016     1     5     8    11
 0.0018079400     1     5     9    11
 0.0004121312     1     5    10    11
 0.2851070379     1     5    11     1
 -0.0177171074     1     5    11     2
 0.0000000005     1     5    11     3
 -0.0058497134     1     5    11     4
 -0.0071650977     1     5    11     6
 0.0000000002     1     5    11     7
 0.0000000041     1     5    11     8
 -0.0041328504     1     5    11     9
 -0.0023337783     1     5    11    10
 -0.1260317322     1     6     2     1
 0.0010393083     1     6     2     2
 -0.0000000004     1     6     2     3
 0.0001697945     1     6     2     4
 0.0000000001     1     6     2     7
 -0.0000000001     1     6     2     8
 0.0003789458     1     6     2     9
 -0.0008042276     1     6     2    10
 0.0000000160     1     6     3     1
 -0.0000000011     1     6     3     2
 -0.0041956806     1     6     3     3
 0.0000000001     1     6     3     4
 0.0018196490     1     6     3     7
 -0.0022420101     1     6     3     8
 -0.0000000015     1     6     3     9
 -0.0000000007     1     6     3    10
 0.0672635642     1     6     4     1
 -0.0064311609     1     6     4     2
 0.0000000006     1     6     4     3
 -0.0084544562     1     6     4     4
 0.0000000001     1     6     4     7
 0.0000000004     1     6     4     8
 -0.0019669695     1     6     4     9
 0.0028158700     1     6     4    10
 -0.0081900773     1     6     5     5
 0.0049339172     1     6     5    11
 -0.3188325973     1     6     6     1
 0.0015121017     1     6     6     2
 0.0000000002     1     6     6     3
 0.0032703116     1     6     6     4
 -0.0000000001     1     6     6     7
 0.0000000001     1     6     6     8
 0.0004681908     1     6     6     9
 -0.0010785199     1     6     6    10
 -0.0000000037     1     6     7     1
 0.0000000006     1     6     7     2
 0.0037194892     1     6     7     3
 0.0000000003     1     6     7     4
 -0.0012417020     1     6     7     7
 0.0011021300     1     6     7     8
 0.0000000008     1     6     7     9
 0.0000000002     1     6     7    10
 0.0000000764     1     6     8     1
 -0.0000000011     1     6     8     2
 -0.0019094520     1     6     8     3
 -0.0000000009     1     6     8     4
 0.0004574855     1     6     8     7
 -0.0004243322     1     6     8     8
 -0.0000000009     1     6     8     9
 -0.0000000004     1     6     8    10
 -0.0410590300     1     6     9     1
 -0.0003073254     1     6     9     2
 -0.0000000010     1     6     9     3
 -0.0018087442     1     6     9     4
 0.0000000002     1     6     9     7
 -0.0000000006     1     6     9     8
 -0.0001020595     1     6     9     9
 0.0012721805     1     6     9    10
 -0.1073469023     1     6    10     1
 0.0032264976     1     6    10     2
 -0.0000000007     1     6    10     3
 0.0065862846     1     6    10     4
 -0.0000000008     1     6    10     8
 0.0019011048     1     6    10     9
 -0.0028420916     1     6    10    10
 0.0071650977     1     6    11     5
 -0.0047047923     1     6    11    11
 0.0000000089     1     7     2     1
 -0.0000000003     1     7     2     2
 -0.0021430830     1     7     2     3
 -0.0000000002     1     7     2     4
 -0.0000000001     1     7     2     6
 0.0003106010     1     7     2     8
 0.0000000002     1     7     2     9
 0.0000000001     1     7     2    10
 0.1452444218     1     7     3     1
 -0.0109000838     1     7     3     2
 0.0000000006     1     7     3     3
 -0.0017566802     1     7     3     4
 -0.0018196490     1     7     3     6
 0.0000000005     1     7     3     8
 -0.0004159738     1     7     3     9
 -0.0001724782     1     7     3    10
 0.0000000092     1     7     4     1
 -0.0000000005     1     7     4     2
 0.0010515076     1     7     4     3
 0.0000000003     1     7     4     4
 -0.0000000001     1     7     4     6
 -0.0012113525     1     7     4     8
 -0.0000000010     1     7     4     9
 -0.0000000006     1     7     4    10
 0.0000000003     1     7     5     5
 -0.0000000001     1     7     5    11
 -0.0000000037     1     7     6     1
 0.0000000005     1     7     6     2
 0.0019195351     1     7     6     3
 0.0000000002     1     7     6     4
 0.0000000001     1     7     6     6
 0.0006455385     1     7     6     8
 0.0000000006     1     7     6     9
 0.0000000002     1     7     6    10
 -0.2853585998     1     7     7     1
 0.0035982665     1     7     7     2
 -0.0000000004     1     7     7     3
 0.0020196741     1     7     7     4
 0.0012417020     1     7     7     6
 -0.0000000008     1     7     7     8
 0.0008444086     1     7     7     9
 -0.0000173927     1     7     7    10
 0.0693080304     1     7     8     1
 -0.0026140674     1     7     8     2
 -0.0000000012     1     7     8     3
 -0.0021727208     1     7     8     4
 -0.0004574855     1     7     8     6
 0.0000000007     1     7     8     8
 -0.0004930630     1     7     8     9
 -0.0007104775     1     7     8    10
 0.0000000474     1     7     9     1
 -0.0000000017     1     7     9     2
 0.0014618913     1     7     9     3
 -0.0000000014     1     7     9     4
 -0.0000000002     1     7     9     6
 0.0000939549     1     7     9     8
 -0.0000000001     1     7     9     9
 -0.0000000005     1     7     9    10
 0.0000000160     1     7    10     1
 -0.0000000005     1     7    10     2
 0.0009183862     1     7    10     3
 -0.0000000008     1     7    10     4
 -0.0003828952     1     7    10     8
 -0.0000000004     1     7    10     9
 -0.0000000002     1     7    10    10
 -0.0000000002     1     7    11     5
 0.0000000003     1     7    11    11
 0.0000000813     1     8     2     1
 0.0000000001     1     8     2     2
 0.0025014388     1     8     2     3
 -0.0000000003     1     8     2     4
 0.0000000001     1     8     2     6
 -0.0003106010     1     8     2     7
 -0.0000000002     1     8     2     9
 0.0000000005     1     8     2    10
 -0.0795693515     1     8     3     1
 0.0090117408     1     8     3     2
 0.0000000011     1     8     3     3
 -0.0021466766     1     8     3     4
 0.0022420101     1     8     3     6
 -0.0000000005     1     8     3     7
 -0.0000458135     1     8     3     9
 0.0022165342     1     8     3    10
 -0.0000000061     1     8     4     1
 0.0000000024     1     8     4     2
 -0.0040372243     1     8     4     3
 0.0000000065     1     8     4     4
 -0.0000000004     1     8     4     6
 0.0012113525     1     8     4     7
 0.0000000014     1     8     4     9
 -0.0000000028     1     8     4    10
 0.0000000093     1     8     5     5
 -0.0000000056     1     8     5    11
 0.0000000764     1     8     6     1
 -0.0000000010     1     8     6     2
 0.0003274067     1     8     6     3
 -0.0000000014     1     8     6     4
 -0.0000000001     1     8     6     6
 -0.0006455385     1     8     6     7
 -0.0000000003     1     8     6     9
 0.0000000004     1     8     6    10
 0.0693080304     1     8     7     1
 -0.0029362959     1     8     7     2
 -0.0000000018     1     8     7     3
 -0.0009645797     1     8     7     4
 -0.0011021300     1     8     7     6
 0.0000000008     1     8     7     7
 -0.0005847267     1     8     7     9
 -0.0003286233     1     8     7    10
 -0.3904959341     1     8     8     1
 0.0022545108     1     8     8     2
 0.0000000032     1     8     8     3
 0.0013030255     1     8     8     4
 0.0004243322     1     8     8     6
 -0.0000000007     1     8     8     7
 0.0003313493     1     8     8     9
 0.0007866786     1     8     8    10
 -0.0000000108     1     8     9     1
 0.0000000016     1     8     9     2
 -0.0008841231     1     8     9     3
 0.0000000002     1     8     9     4
 0.0000000006     1     8     9     6
 -0.0000939549     1     8     9     7
 0.0000000008     1     8     9    10
 0.0000000289     1     8    10     1
 -0.0000000005     1     8    10     2
 -0.0017423347     1     8    10     3
 -0.0000000050     1     8    10     4
 0.0000000008     1     8    10     6
 0.0003828952     1     8    10     7
 -0.0000000010     1     8    10     9
 0.0000000031     1     8    10    10
 -0.0000000041     1     8    11     5
 0.0000000027     1     8    11    11
 -0.0716217989     1     9     2     1
 -0.0012960219     1     9     2     2
 0.0000000015     1     9     2     3
 0.0014371537     1     9     2     4
 -0.0003789458     1     9     2     6
 -0.0000000002     1     9     2     7
 0.0000000002     1     9     2     8
 -0.0006412407     1     9     2    10
 -0.0000000429     1     9     3     1
 0.0000000056     1     9     3     2
 -0.0018784526     1     9     3     3
 -0.0000000018     1     9     3     4
 0.0000000015     1     9     3     6
 0.0004159738     1     9     3     7
 0.0000458135     1     9     3     8
 0.0000000016     1     9     3    10
 -0.0812954625     1     9     4     1
 0.0046053268     1     9     4     2
 -0.0000000030     1     9     4     3
 -0.0050312836     1     9     4     4
 0.0019669695     1     9     4     6
 0.0000000010     1     9     4     7
 -0.0000000014     1     9     4     8
 0.0037309830     1     9     4    10
 -0.0098474527     1     9     5     5
 0.0058377935     1     9     5    11
 -0.0410590300     1     9     6     1
 -0.0007041923     1     9     6     2
 0.0000000006     1     9     6     3
 0.0001944487     1     9     6     4
 -0.0004681908     1     9     6     6
 -0.0000000006     1     9     6     7
 0.0000000003     1     9     6     8
 -0.0006303326     1     9     6    10
 0.0000000474     1     9     7     1
 -0.0000000019     1     9     7     2
 0.0018311686     1     9     7     3
 -0.0000000005     1     9     7     4
 -0.0000000008     1     9     7     6
 -0.0008444086     1     9     7     7
 0.0005847267     1     9     7     8
 -0.0000000001     1     9     7    10
 -0.0000000108     1     9     8     1
 0.0000000018     1     9     8     2
 -0.0007549747     1     9     8     3
 -0.0000000012     1     9     8     4
 0.0000000009     1     9     8     6
 0.0004930630     1     9     8     7
 -0.0003313493     1     9     8     8
 0.0000000018     1     9     8    10
 -0.3709814115     1     9     9     1
 0.0006380676     1     9     9     2
 -0.0000000008     1     9     9     3
 0.0005923899     1     9     9     4
 0.0001020595     1     9     9     6
 0.0000000001     1     9     9     7
 -0.0003528969     1     9     9    10
 -0.0019443452     1     9    10     1
 -0.0027367323     1     9    10     2
 -0.0000000015     1     9    10     3
 0.0045683378     1     9    10     4
 -0.0019011048     1     9    10     6
 0.0000000004     1     9    10     7
 0.0000000010     1     9    10     8
 -0.0033838881     1     9    10    10
 0.0041328504     1     9    11     5
 -0.0028194923     1     9    11    11
 -0.0764738709     1    10     2     1
 0.0039709877     1    10     2     2
 0.0000000007     1    10     2     3
 -0.0025866881     1    10     2     4
 0.0008042276     1    10     2     6
 -0.0000000001     1    10     2     7
 -0.0000000005     1    10     2     8
 0.0006412407     1    10     2     9
 -0.0000000234     1    10     3     1
 0.0000000029     1    10     3     2
 0.0018362114     1    10     3     3
 -0.0000000003     1    10     3     4
 0.0000000007     1    10     3     6
 0.0001724782     1    10     3     7
 -0.0022165342     1    10     3     8
 -0.0000000016     1    10     3     9
 0.2119189252     1    10     4     1
 -0.0184500670     1    10     4     2
 -0.0000000004     1    10     4     3
 -0.0087284721     1    10     4     4
 -0.0028158700     1    10     4     6
 0.0000000006     1    10     4     7
 0.0000000028     1    10     4     8
 -0.0037309830     1    10     4     9
 -0.0039952800     1    10     5     5
 0.0025904827     1    10     5    11
 -0.1073469023     1    10     6     1
 0.0040079165     1    10     6     2
 0.0037957640     1    10     6     4
 0.0010785199     1    10     6     6
 -0.0000000002     1    10     6     7
 -0.0000000004     1    10     6     8
 0.0006303326     1    10     6     9
 0.0000000160     1    10     7     1
 -0.0000000006     1    10     7     2
 0.0011483747     1    10     7     3
 -0.0000000002     1    10     7     4
 -0.0000000002     1    10     7     6
 0.0000173927     1    10     7     7
 0.0003286233     1    10     7     8
 0.0000000001     1    10     7     9
 0.0000000289     1    10     8     1
 -0.0000000011     1    10     8     2
 -0.0040371713     1    10     8     3
 -0.0000000022     1    10     8     4
 0.0000000004     1    10     8     6
 0.0007104775     1    10     8     7
 -0.0007866786     1    10     8     8
 -0.0000000018     1    10     8     9
 -0.0019443452     1    10     9     1
 -0.0021130494     1    10     9     2
 -0.0000000033     1    10     9     3
 0.0007987468     1    10     9     4
 -0.0012721805     1    10     9     6
 0.0000000005     1    10     9     7
 -0.0000000008     1    10     9     8
 0.0003528969     1    10     9     9
 -0.4686808250     1    10    10     1
 0.0099440550     1    10    10     2
 -0.0000000022     1    10    10     3
 0.0049422178     1    10    10     4
 0.0028420916     1    10    10     6
 0.0000000002     1    10    10     7
 -0.0000000031     1    10    10     8
 0.0033838881     1    10    10     9
 0.0023337783     1    10    11     5
 -0.0015552223     1    10    11    11
 -0.0049212597     1    11     2     5
 0.0000000006     1    11     3     5
 -0.0009100087     1    11     4     5
 0.2851070379     1    11     5     1
 -0.0241604990     1    11     5     2
 0.0000000012     1    11     5     3
 -0.0070974731     1    11     5     4
 -0.0049339172     1    11     5     6
 0.0000000001     1    11     5     7
 0.0000000056     1    11     5     8
 -0.0058377935     1    11     5     9
 -0.0025904827     1    11     5    10
 0.0021234264     1    11     6     5
 -0.0000000001     1    11     7     5
 0.0000000016     1    11     8     5
 -0.0018079400     1    11     9     5
 -0.0004121312     1    11    10     5
 -0.5418432646     1    11    11     1
 0.0139688716     1    11    11     2
 0.0044065286     1    11    11     4
 0.0047047923     1    11    11     6
 -0.0000000003     1    11    11     7
 -0.0000000027     1    11    11     8
 0.0028194923     1    11    11     9
 0.0015552223     1    11    11    10
 -0.9852646518     2     1     1     2
 0.0000000005     2     1     1     3
 -0.0672169680     2     1     1     4
 -0.1260317322     2     1     1     6
 0.0000000089     2     1     1     7
 0.0000000813     2     1     1     8
 -0.0716217989     2     1     1     9
 -0.0764738709     2     1     1    10
 -0.0000000011     2     1     3     2
 -0.0306609197     2     1     3     3
 0.0000000008     2     1     3     4
 0.0000000006     2     1     3     6
 0.0080723544     2     1     3     7
 -0.0060047422     2     1     3     8
 -0.0000000037     2     1     3     9
 -0.0000000020     2     1     3    10
 0.0062040374     2     1     4     2
 0.0000000009     2     1     4     3
 -0.0361113120     2     1     4     4
 0.0061060269     2     1     4     6
 0.0000000003     2     1     4     7
 -0.0000000026     2     1     4     8
 -0.0028661531     2     1     4     9
 0.0146394667     2     1     4    10
 -0.0411294851     2     1     5     5
 0.0177171074     2     1     5    11
 -0.0010393083     2     1     6     2
 0.0000000011     2     1     6     3
 0.0064311609     2     1     6     4
 -0.0015121017     2     1     6     6
 -0.0000000006     2     1     6     7
 0.0000000011     2     1     6     8
 0.0003073254     2     1     6     9
 -0.0032264976     2     1     6    10
 0.0000000003     2     1     7     2
 0.0109000838     2     1     7     3
 0.0000000005     2     1     7     4
 -0.0000000005     2     1     7     6
 -0.0035982665     2     1     7     7
 0.0026140674     2     1     7     8
 0.0000000017     2     1     7     9
 0.0000000005     2     1     7    10
 -0.0000000001     2     1     8     2
 -0.0090117408     2     1     8     3
 -0.0000000024     2     1     8     4
 0.0000000010     2     1     8     6
 0.0029362959     2     1     8     7
 -0.0022545108     2     1     8     8
 -0.0000000016     2     1     8     9
 0.0000000005     2     1     8    10
 0.0012960219     2     1     9     2
 -0.0000000056     2     1     9     3
 -0.0046053268     2     1     9     4
 0.0007041923     2     1     9     6
 0.0000000019     2     1     9     7
 -0.0000000018     2     1     9     8
 -0.0006380676     2     1     9     9
 0.0027367323     2     1     9    10
 -0.0039709877     2     1    10     2
 -0.0000000029     2     1    10     3
 0.0184500670     2     1    10     4
 -0.0040079165     2     1    10     6
 0.0000000006     2     1    10     7
 0.0000000011     2     1    10     8
 0.0021130494     2     1    10     9
 -0.0099440550     2     1    10    10
 0.0241604990     2     1    11     5
 -0.0139688716     2     1    11    11
 0.9852646518     2     2     1     1
 0.0000000011     2     2     1     3
 -0.0062040374     2     2     1     4
 0.0010393083     2     2     1     6
 -0.0000000003     2     2     1     7
 0.0000000001     2     2     1     8
 -0.0012960219     2     2     1     9
 0.0039709877     2     2     1    10
 0.0000000011     2     2     3     1
 0.5229794537     2     2     3     3
 -0.0000000041     2     2     3     4
 -0.0000000072     2     2     3     6
 -0.0604940623     2     2     3     7
 0.0178964510     2     2     3     8
 0.0000000055     2     2     3     9
 0.0000000045     2     2     3    10
 -0.0062040374     2     2     4     1
 -0.0000000041     2     2     4     3
 0.5509729803     2     2     4     4
 -0.0297378095     2     2     4     6
 -0.0000000042     2     2     4     7
 0.0000000005     2     2     4     8
 0.0345705337     2     2     4     9
 -0.0832750531     2     2     4    10
 0.5775144707     2     2     5     5
 -0.1118910783     2     2     5    11
 0.0010393083     2     2     6     1
 -0.0000000072     2     2     6     3
 -0.0297378095     2     2     6     4
 0.2801307873     2     2     6     6
 -0.0000000002     2     2     6     7
 -0.0000000439     2     2     6     8
 0.0221821202     2     2     6     9
 0.0641652246     2     2     6    10
 -0.0000000003     2     2     7     1
 -0.0604940623     2     2     7     3
 -0.0000000042     2     2     7     4
 -0.0000000002     2     2     7     6
 0.2554676651     2     2     7     7
 -0.0448364738     2     2     7     8
 -0.0000000307     2     2     7     9
 -0.0000000118     2     2     7    10
 0.0000000001     2     2     8     1
 0.0178964510     2     2     8     3
 0.0000000005     2     2     8     4
 -0.0000000439     2     2     8     6
 -0.0448364738     2     2     8     7
 0.3576903532     2     2     8     8
 0.0000000042     2     2     8     9
 -0.0000000144     2     2     8    10
 -0.0012960219     2     2     9     1
 0.0000000055     2     2     9     3
 0.0345705337     2     2     9     4
 0.0221821202     2     2     9     6
 -0.0000000307     2     2     9     7