&FCI NORB= 10,NELEC= 10,MS2=0,
 ORBSYM=1,1,1,1,1,1,1,1,1,1
 ISYM=1,
&END
 0.9821612442     1     1     2     2
 0.0723368991     1     1     2     4
 -0.1612562752     1     1     2     6
 0.1327982530     1     1     2     9
 -0.0159115343     1     1     2    10
 0.8590869048     1     1     3     3
 -0.2025642356     1     1     3     7
 0.1378857741     1     1     3     8
 0.0723368991     1     1     4     2
 0.9525062384     1     1     4     4
 0.0913031301     1     1     4     6
 -0.1391424182     1     1     4     9
 -0.3266992692     1     1     4    10
 1.0041875997     1     1     5     5
 -0.1612562752     1     1     6     2
 0.0913031301     1     1     6     4
 0.3995084889     1     1     6     6
 -0.1606865489     1     1     6     9
 -0.0846514499     1     1     6    10
 -0.2025642356     1     1     7     3
 0.3927740285     1     1     7     7
 -0.1544565652     1     1     7     8
 0.1378857741     1     1     8     3
 -0.1544565652     1     1     8     7
 0.5542904150     1     1     8     8
 0.1327982530     1     1     9     2
 -0.1391424182     1     1     9     4
 -0.1606865489     1     1     9     6
 0.5747986601     1     1     9     9
 0.1220036038     1     1     9    10
 -0.0159115343     1     1    10     2
 -0.3266992692     1     1    10     4
 -0.0846514499     1     1    10     6
 0.1220036038     1     1    10     9
 0.7949769565     1     1    10    10
 -0.9821612442     1     2     2     1
 -0.0068684995     1     2     2     4
 -0.0019624783     1     2     2     6
 0.0040527097     1     2     2     9
 0.0088849150     1     2     2    10
 0.0300583077     1     2     3     3
 -0.0155933323     1     2     3     7
 0.0159871027     1     2     3     8
 -0.0723368991     1     2     4     1
 0.0354572338     1     2     4     4
 0.0089983590     1     2     4     6
 -0.0161006435     1     2     4     9
 -0.0344296336     1     2     4    10
 0.0408284524     1     2     5     5
 0.1612562752     1     2     6     1
 0.0084042793     1     2     6     4
 0.0027399222     1     2     6     6
 -0.0050172032     1     2     6     9
 -0.0099645277     1     2     6    10
 -0.0117072429     1     2     7     3
 0.0072720231     1     2     7     7
 -0.0073525404     1     2     7     8
 0.0108126299     1     2     8     3
 -0.0064051370     1     2     8     7
 0.0061383900     1     2     8     8
 -0.1327982530     1     2     9     1
 -0.0128787694     1     2     9     4
 -0.0040542871     1     2     9     6
 0.0068490976     1     2     9     9
 0.0155689243     1     2     9    10
 0.0159115343     1     2    10     1
 -0.0219148011     1     2    10     4
 -0.0061030533     1     2    10     6
 0.0118673019     1     2    10     9
 0.0264850315     1     2    10    10
 -0.0032059877     1     3     2     7
 0.0046852010     1     3     2     8
 -0.8590869048     1     3     3     1
 -0.0300583077     1     3     3     2
 -0.0104175992     1     3     3     4
 0.0048109515     1     3     3     6
 0.0007141714     1     3     3     9
 0.0051433746     1     3     3    10
 0.0017885608     1     3     4     7
 -0.0059913917     1     3     4     8
 -0.0025295418     1     3     6     7
 -0.0003537395     1     3     6     8
 0.2025642356     1     3     7     1
 0.0117072429     1     3     7     2
 0.0040719309     1     3     7     4
 -0.0059162849     1     3     7     6
 0.0031580875     1     3     7     9
 -0.0008296455     1     3     7    10
 -0.1378857741     1     3     8     1
 -0.0108126299     1     3     8     2
 -0.0033546704     1     3     8     4
 0.0046643766     1     3     8     6
 -0.0086906305     1     3     8     9
 -0.0033396785     1     3     8    10
 0.0022106349     1     3     9     7
 -0.0048309715     1     3     9     8
 -0.0011436629     1     3    10     7
 0.0021935370     1     3    10     8
 -0.0723368991     1     4     2     1
 0.0068684995     1     4     2     2
 0.0001468029     1     4     2     6
 -0.0026617224     1     4     2     9
 -0.0114214646     1     4     2    10
 0.0104175992     1     4     3     3
 -0.0023955611     1     4     3     7
 -0.0025075239     1     4     3     8
 -0.9525062384     1     4     4     1
 -0.0354572338     1     4     4     2
 0.0105795526     1     4     4     6
 -0.0125002259     1     4     4     9
 -0.0057184578     1     4     4    10
 0.0138645376     1     4     5     5
 -0.0913031301     1     4     6     1
 -0.0084042793     1     4     6     2
 0.0054858524     1     4     6     6
 -0.0050772244     1     4     6     9
 -0.0024191745     1     4     6    10
 -0.0040719309     1     4     7     3
 0.0038489246     1     4     7     7
 -0.0016740887     1     4     7     8
 0.0033546704     1     4     8     3
 -0.0040242904     1     4     8     7
 0.0061412063     1     4     8     8
 0.1391424182     1     4     9     1
 0.0128787694     1     4     9     2
 -0.0068350764     1     4     9     6
 0.0109201511     1     4     9     9
 -0.0000676400     1     4     9    10
 0.3266992692     1     4    10     1
 0.0219148011     1     4    10     2
 -0.0118568724     1     4    10     6
 0.0100837480     1     4    10     9
 0.0048451400     1     4    10    10
 -1.0041875997     1     5     5     1
 -0.0408284524     1     5     5     2
 -0.0138645376     1     5     5     4
 0.0102860096     1     5     5     6
 -0.0123913929     1     5     5     9
 0.0093580192     1     5     5    10
 0.1612562752     1     6     2     1
 0.0019624783     1     6     2     2
 -0.0001468029     1     6     2     4
 -0.0009486136     1     6     2     9
 -0.0036012224     1     6     2    10
 -0.0048109515     1     6     3     3
 0.0033480114     1     6     3     7
 -0.0050008851     1     6     3     8
 -0.0913031301     1     6     4     1
 -0.0089983590     1     6     4     2
 -0.0105795526     1     6     4     4
 0.0017652464     1     6     4     9
 0.0092019841     1     6     4    10
 -0.0102860096     1     6     5     5
 -0.3995084889     1     6     6     1
 -0.0027399222     1     6     6     2
 -0.0054858524     1     6     6     4
 0.0013427307     1     6     6     9
 0.0050934375     1     6     6    10
 0.0059162849     1     6     7     3
 -0.0028848069     1     6     7     7
 0.0034048622     1     6     7     8
 -0.0046643766     1     6     8     3
 0.0019887807     1     6     8     7
 -0.0011705200     1     6     8     8
 0.1606865489     1     6     9     1
 0.0040542871     1     6     9     2
 0.0068350764     1     6     9     4
 -0.0002266928     1     6     9     9
 -0.0075038613     1     6     9    10
 0.0846514499     1     6    10     1
 0.0061030533     1     6    10     2
 0.0118568724     1     6    10     4
 -0.0032795662     1     6    10     9
 -0.0115599888     1     6    10    10
 0.0032059877     1     7     2     3
 -0.0009048819     1     7     2     8
 0.2025642356     1     7     3     1
 0.0155933323     1     7     3     2
 0.0023955611     1     7     3     4
 -0.0033480114     1     7     3     6
 0.0009088834     1     7     3     9
 0.0002827093     1     7     3    10
 -0.0017885608     1     7     4     3
 0.0023760583     1     7     4     8
 0.0025295418     1     7     6     3
 0.0014197005     1     7     6     8
 -0.3927740285     1     7     7     1
 -0.0072720231     1     7     7     2
 -0.0038489246     1     7     7     4
 0.0028848069     1     7     7     6
 -0.0011956467     1     7     7     9
 0.0018374861     1     7     7    10
 0.1544565652     1     7     8     1
 0.0064051370     1     7     8     2
 0.0040242904     1     7     8     4
 -0.0019887807     1     7     8     6
 0.0036587691     1     7     8     9
 -0.0002646232     1     7     8    10
 -0.0022106349     1     7     9     3
 0.0014394842     1     7     9     8
 0.0011436629     1     7    10     3
 -0.0005932144     1     7    10     8
 -0.0046852010     1     8     2     3
 0.0009048819     1     8     2     7
 -0.1378857741     1     8     3     1
 -0.0159871027     1     8     3     2
 0.0025075239     1     8     3     4
 0.0050008851     1     8     3     6
 -0.0037892587     1     8     3     9
 -0.0051687466     1     8     3    10
 0.0059913917     1     8     4     3
 -0.0023760583     1     8     4     7
 0.0003537395     1     8     6     3
 -0.0014197005     1     8     6     7
 0.1544565652     1     8     7     1
 0.0073525404     1     8     7     2
 0.0016740887     1     8     7     4
 -0.0034048622     1     8     7     6
 0.0022151965     1     8     7     9
 0.0003378421     1     8     7    10
 -0.5542904150     1     8     8     1
 -0.0061383900     1     8     8     2
 -0.0061412063     1     8     8     4
 0.0011705200     1     8     8     6
 -0.0023301335     1     8     8     9
 0.0023657983     1     8     8    10
 0.0048309715     1     8     9     3
 -0.0014394842     1     8     9     7
 -0.0021935370     1     8    10     3
 0.0005932144     1     8    10     7
 -0.1327982530     1     9     2     1
 -0.0040527097     1     9     2     2
 0.0026617224     1     9     2     4
 0.0009486136     1     9     2     6
 0.0035334377     1     9     2    10
 -0.0007141714     1     9     3     3
 -0.0009088834     1     9     3     7
 0.0037892587     1     9     3     8
 0.1391424182     1     9     4     1
 0.0161006435     1     9     4     2
 0.0125002259     1     9     4     4
 -0.0017652464     1     9     4     6
 -0.0099248990     1     9     4    10
 0.0123913929     1     9     5     5
 0.1606865489     1     9     6     1
 0.0050172032     1     9     6     2
 0.0050772244     1     9     6     4
 -0.0013427307     1     9     6     6
 -0.0042270159     1     9     6    10
 -0.0031580875     1     9     7     3
 0.0011956467     1     9     7     7
 -0.0022151965     1     9     7     8
 0.0086906305     1     9     8     3
 -0.0036587691     1     9     8     7
 0.0023301335     1     9     8     8
 -0.5747986601     1     9     9     1
 -0.0068490976     1     9     9     2
 -0.0109201511     1     9     9     4
 0.0002266928     1     9     9     6
 0.0115459907     1     9     9    10
 -0.1220036038     1     9    10     1
 -0.0118673019     1     9    10     2
 -0.0100837480     1     9    10     4
 0.0032795662     1     9    10     6
 0.0089790340     1     9    10    10
 0.0159115343     1    10     2     1
 -0.0088849150     1    10     2     2
 0.0114214646     1    10     2     4
 0.0036012224     1    10     2     6
 -0.0035334377     1    10     2     9
 -0.0051433746     1    10     3     3
 -0.0002827093     1    10     3     7
 0.0051687466     1    10     3     8
 0.3266992692     1    10     4     1
 0.0344296336     1    10     4     2
 0.0057184578     1    10     4     4
 -0.0092019841     1    10     4     6
 0.0099248990     1    10     4     9
 -0.0093580192     1    10     5     5
 0.0846514499     1    10     6     1
 0.0099645277     1    10     6     2
 0.0024191745     1    10     6     4
 -0.0050934375     1    10     6     6
 0.0042270159     1    10     6     9
 0.0008296455     1    10     7     3
 -0.0018374861     1    10     7     7
 -0.0003378421     1    10     7     8
 0.0033396785     1    10     8     3
 0.0002646232     1    10     8     7
 -0.0023657983     1    10     8     8
 -0.1220036038     1    10     9     1
 -0.0155689243     1    10     9     2
 0.0000676400     1    10     9     4
 0.0075038613     1    10     9     6
 -0.0115459907     1    10     9     9
 -0.7949769565     1    10    10     1
 -0.0264850315     1    10    10     2
 -0.0048451400     1    10    10     4
 0.0115599888     1    10    10     6
 -0.0089790340     1    10    10     9
 -0.9821612442     2     1     1     2
 -0.0723368991     2     1     1     4
 0.1612562752     2     1     1     6
 -0.1327982530     2     1     1     9
 0.0159115343     2     1     1    10
 0.0300583077     2     1     3     3
 -0.0117072429     2     1     3     7
 0.0108126299     2     1     3     8
 -0.0068684995     2     1     4     2
 0.0354572338     2     1     4     4
 0.0084042793     2     1     4     6
 -0.0128787694     2     1     4     9
 -0.0219148011     2     1     4    10
 0.0408284524     2     1     5     5
 -0.0019624783     2     1     6     2
 0.0089983590     2     1     6     4
 0.0027399222     2     1     6     6
 -0.0040542871     2     1     6     9
 -0.0061030533     2     1     6    10
 -0.0155933323     2     1     7     3
 0.0072720231     2     1     7     7
 -0.0064051370     2     1     7     8
 0.0159871027     2     1     8     3
 -0.0073525404     2     1     8     7
 0.0061383900     2     1     8     8
 0.0040527097     2     1     9     2
 -0.0161006435     2     1     9     4
 -0.0050172032     2     1     9     6
 0.0068490976     2     1     9     9
 0.0118673019     2     1     9    10
 0.0088849150     2     1    10     2
 -0.0344296336     2     1    10     4
 -0.0099645277     2     1    10     6
 0.0155689243     2     1    10     9
 0.0264850315     2     1    10    10
 0.9821612442     2     2     1     1
 0.0068684995     2     2     1     4
 0.0019624783     2     2     1     6
 -0.0040527097     2     2     1     9
 -0.0088849150     2     2     1    10
 0.5254584571     2     2     3     3
 -0.0778139148     2     2     3     7
 0.0275402612     2     2     3     8
 0.0068684995     2     2     4     1
 0.5530293303     2     2     4     4
 0.0385163847     2     2     4     6
 -0.0451080046     2     2     4     9
 -0.1045192290     2     2     4    10
 0.5829700323     2     2     5     5
 0.0019624783     2     2     6     1
 0.0385163847     2     2     6     4
 0.3338783463     2     2     6     6
 -0.0806406770     2     2     6     9
 -0.0402720743     2     2     6    10
 -0.0778139148     2     2     7     3
 0.3278918025     2     2     7     7
 -0.0855278439     2     2     7     8
 0.0275402612     2     2     8     3
 -0.0855278439     2     2     8     7
 0.4728222685     2     2     8     8
 -0.0040527097     2     2     9     1
 -0.0451080046     2     2     9     4
 -0.0806406770     2     2     9     6
 0.4717832639     2     2     9     9
 0.0241114656     2     2     9    10
 -0.0088849150     2     2    10     1
 -0.1045192290     2     2    10     4
 -0.0402720743     2     2    10     6
 0.0241114656     2     2    10     9
 0.5366920111     2     2    10    10
 0.0032059877     2     3     1     7
 -0.0046852010     2     3     1     8
 -0.0300583077     2     3     3     1
 -0.5254584571     2     3     3     2
 -0.0032380271     2     3     3     4
 0.0726084941     2     3     3     6
 -0.0760301071     2     3     3     9
 0.0196630217     2     3     3    10
 -0.0150609321     2     3     4     7
 0.0391440062     2     3     4     8
 0.0402022641     2     3     6     7
 0.0000416231     2     3     6     8
 0.0155933323     2     3     7     1
 0.0778139148     2     3     7     2
 -0.0009144919     2     3     7     4
 0.0213377123     2     3     7     6
 0.0057199996     2     3     7     9
 -0.0033856947     2     3     7    10
 -0.0159871027     2     3     8     1
 -0.0275402612     2     3     8     2
 0.0055212321     2     3     8     4
 0.0041143751     2     3     8     6
 0.0520798509     2     3     8     9
 0.0065141191     2     3     8    10
 -0.0147404089     2     3     9     7
 0.0536951801     2     3     9     8
 0.0002910904     2     3    10     7
 0.0050724372     2     3    10     8
 0.0723368991     2     4     1     1
 -0.0068684995     2     4     1     2
 -0.0001468029     2     4     1     6
 0.0026617224     2     4     1     9
 0.0114214646     2     4     1    10
 0.0032380271     2     4     3     3
 -0.0140599479     2     4     3     7
 0.0340717382     2     4     3     8
 -0.0354572338     2     4     4     1
 -0.5530293303     2     4     4     2
 0.0720145909     2     4     4     6
 -0.0480580472     2     4     4     9
 -0.0149695153     2     4     4    10
 0.0070549807     2     4     5     5
 -0.0089983590     2     4     6     1
 -0.0385163847     2     4     6     2
 -0.0111471200     2     4     6     6
 0.0005788881     2     4     6     9
 0.0202391746     2     4     6    10
 0.0009144919     2     4     7     3
 -0.0140987957     2     4     7     7
 -0.0041461812     2     4     7     8
 -0.0055212321     2     4     8     3
 0.0045362471     2     4     8     7
 -0.0188419409     2     4     8     8
 0.0161006435     2     4     9     1
 0.0451080046     2     4     9     2
 -0.0034742887     2     4     9     6
 -0.0283349193     2     4     9     9
 0.0098295932     2     4     9    10
 0.0344296336     2     4    10     1
 0.1045192290     2     4    10     2
 -0.0036613425     2     4    10     6
 0.0317762778     2     4    10     9
 0.0180192581     2     4    10    10
 -0.0408284524     2     5     5     1
 -0.5829700323     2     5     5     2
 -0.0070549807     2     5     5     4
 0.0704178712     2     5     5     6
 -0.0307025538     2     5     5     9
 -0.0078917913     2     5     5    10
 -0.1612562752     2     6     1     1
 -0.0019624783     2     6     1     2
 0.0001468029     2     6     1     4
 0.0009486136     2     6     1     9
 0.0036012224     2     6     1    10
 -0.0726084941     2     6     3     3
 0.0182753833     2     6     3     7
 -0.0037631112     2     6     3     8
 -0.0084042793     2     6     4     1
 -0.0385163847     2     6     4     2
 -0.0720145909     2     6     4     4
 0.0041597737     2     6     4     9
 0.0227596582     2     6     4    10
 -0.0704178712     2     6     5     5
 -0.0027399222     2     6     6     1
 -0.3338783463     2     6     6     2
 0.0111471200     2     6     6     4
 0.0120188577     2     6     6     9
 0.0123874370     2     6     6    10
 -0.0213377123     2     6     7     3
 -0.0138087625     2     6     7     7
 0.0225482986     2     6     7     8
 -0.0041143751     2     6     8     3
 0.0128075641     2     6     8     7
 -0.0376790625     2     6     8     8
 0.0050172032     2     6     9     1
 0.0806406770     2     6     9     2
 0.0034742887     2     6     9     4
 -0.0284283550     2     6     9     9
 -0.0046809305     2     6     9    10
 0.0099645277     2     6    10     1
 0.0402720743     2     6    10     2
 0.0036613425     2     6    10     4
 -0.0008879401     2     6    10     9
 -0.0532438257     2     6    10    10
 -0.0032059877     2     7     1     3
 0.0009048819     2     7     1     8
 0.0117072429     2     7     3     1
 0.0778139148     2     7     3     2
 0.0140599479     2     7     3     4
 -0.0182753833     2     7     3     6
 0.0192742371     2     7     3     9
 -0.0035274517     2     7     3    10
 0.0150609321     2     7     4     3
 -0.0082460344     2     7     4     8
 -0.0402022641     2     7     6     3
 0.0097673670     2     7     6     8
 -0.0072720231     2     7     7     1
 -0.3278918025     2     7     7     2
 0.0140987957     2     7     7     4
 0.0138087625     2     7     7     6
 0.0011168652     2     7     7     9
 0.0021791332     2     7     7    10
 0.0073525404     2     7     8     1
 0.0855278439     2     7     8     2
 -0.0045362471     2     7     8     4
 -0.0128075641     2     7     8     6
 0.0041174139     2     7     8     9
 -0.0007930666     2     7     8    10
 0.0147404089     2     7     9     3
 -0.0069222386     2     7     9     8
 -0.0002910904     2     7    10     3
 -0.0020814874     2     7    10     8
 0.0046852010     2     8     1     3
 -0.0009048819     2     8     1     7
 -0.0108126299     2     8     3     1
 -0.0275402612     2     8     3     2
 -0.0340717382     2     8     3     4
 0.0037631112     2     8     3     6
 -0.0012702423     2     8     3     9
 0.0008751545     2     8     3    10
 -0.0391440062     2     8     4     3
 0.0082460344     2     8     4     7
 -0.0000416231     2     8     6     3
 -0.0097673670     2     8     6     7
 0.0064051370     2     8     7     1
 0.0855278439     2     8     7     2
 0.0041461812     2     8     7     4
 -0.0225482986     2     8     7     6
 0.0109951721     2     8     7     9
 0.0014840667     2     8     7    10
 -0.0061383900     2     8     8     1
 -0.4728222685     2     8     8     2
 0.0188419409     2     8     8     4
 0.0376790625     2     8     8     6
 -0.0228593142     2     8     8     9
 -0.0018866052     2     8     8    10
 -0.0536951801     2     8     9     3
 0.0069222386     2     8     9     7
 -0.0050724372     2     8    10     3
 0.0020814874     2     8    10     7
 0.1327982530     2     9     1     1
 0.0040527097     2     9     1     2
 -0.0026617224     2     9     1     4
 -0.0009486136     2     9     1     6
 -0.0035334377     2     9     1    10
 0.0760301071     2     9     3     3
 -0.0192742371     2     9     3     7
 0.0012702423     2     9     3     8
 0.0128787694     2     9     4     1
 0.0451080046     2     9     4     2
 0.0480580472     2     9     4     4
 -0.0041597737     2     9     4     6
 -0.0203021954     2     9     4    10
 0.0307025538     2     9     5     5
 0.0040542871     2     9     6     1
 0.0806406770     2     9     6     2
 -0.0005788881     2     9     6     4
 -0.0120188577     2     9     6     6
 -0.0038251463     2     9     6    10
 -0.0057199996     2     9     7     3
 -0.0011168652     2     9     7     7
 -0.0109951721     2     9     7     8
 -0.0520798509     2     9     8     3
 -0.0041174139     2     9     8     7
 0.0228593142     2     9     8     8
 -0.0068490976     2     9     9     1
 -0.4717832639     2     9     9     2
 0.0283349193     2     9     9     4
 0.0284283550     2     9     9     6
 0.0069283277     2     9     9    10
 -0.0155689243     2     9    10     1
 -0.0241114656     2     9    10     2
 -0.0317762778     2     9    10     4
 0.0008879401     2     9    10     6
 0.0303223277     2     9    10    10
 -0.0159115343     2    10     1     1
 0.0088849150     2    10     1     2
 -0.0114214646     2    10     1     4
 -0.0036012224     2    10     1     6
 0.0035334377     2    10     1     9
 -0.0196630217     2    10     3     3
 0.0035274517     2    10     3     7
 -0.0008751545     2    10     3     8
 0.0219148011     2    10     4     1
 0.1045192290     2    10     4     2
 0.0149695153     2    10     4     4
 -0.0227596582     2    10     4     6
 0.0203021954     2    10     4     9
 0.0078917913     2    10     5     5
 0.0061030533     2    10     6     1
 0.0402720743     2    10     6     2
 -0.0202391746     2    10     6     4
 -0.0123874370     2    10     6     6
 0.0038251463     2    10     6     9
 0.0033856947     2    10     7     3
 -0.0021791332     2    10     7     7
 -0.0014840667     2    10     7     8
 -0.0065141191     2    10     8     3
 0.0007930666     2    10     8     7
 0.0018866052     2    10     8     8
 -0.0118673019     2    10     9     1
 -0.0241114656     2    10     9     2
 -0.0098295932     2    10     9     4
 0.0046809305     2    10     9     6
 -0.0069283277     2    10     9     9
 -0.0264850315     2    10    10     1
 -0.5366920111     2    10    10     2
 -0.0180192581     2    10    10     4
 0.0532438257     2    10    10     6
 -0.0303223277     2    10    10     9
 -0.8590869048     3     1     1     3
 0.2025642356     3     1     1     7
 -0.1378857741     3     1     1     8
 -0.0300583077     3     1     2     3
 0.0117072429     3     1     2     7
 -0.0108126299     3     1     2     8
 -0.0104175992     3     1     4     3
 0.0040719309     3     1     4     7
 -0.0033546704     3     1     4     8
 0.0048109515     3     1     6     3
 -0.0059162849     3     1     6     7
 0.0046643766     3     1     6     8
 -0.0032059877     3     1     7     2
 0.0017885608     3     1     7     4
 -0.0025295418     3     1     7     6
 0.0022106349     3     1     7     9
 -0.0011436629     3     1     7    10
 0.0046852010     3     1     8     2
 -0.0059913917     3     1     8     4
 -0.0003537395     3     1     8     6
 -0.0048309715     3     1     8     9
 0.0021935370     3     1     8    10
 0.0007141714     3     1     9     3
 0.0031580875     3     1     9     7
 -0.0086906305     3     1     9     8
 0.0051433746     3     1    10     3
 -0.0008296455     3     1    10     7
 -0.0033396785     3     1    10     8
 -0.0300583077     3     2     1     3
 0.0155933323     3     2     1     7
 -0.0159871027     3     2     1     8
 -0.5254584571     3     2     2     3
 0.0778139148     3     2     2     7
 -0.0275402612     3     2     2     8
 -0.0032380271     3     2     4     3
 -0.0009144919     3     2     4     7
 0.0055212321     3     2     4     8
 0.0726084941     3     2     6     3
 0.0213377123     3     2     6     7
 0.0041143751     3     2     6     8
 0.0032059877     3     2     7     1
 -0.0150609321     3     2     7     4
 0.0402022641     3     2     7     6
 -0.0147404089     3     2     7     9
 0.0002910904     3     2     7    10
 -0.0046852010     3     2     8     1
 0.0391440062     3     2     8     4
 0.0000416231     3     2     8     6
 0.0536951801     3     2     8     9
 0.0050724372     3     2     8    10
 -0.0760301071     3     2     9     3
 0.0057199996     3     2     9     7
 0.0520798509     3     2     9     8
 0.0196630217     3     2    10     3
 -0.0033856947     3     2    10     7
 0.0065141191     3     2    10     8
 0.8590869048     3     3     1     1
 0.0300583077     3     3     1     2
 0.0104175992     3     3     1     4
 -0.0048109515     3     3     1     6
 -0.0007141714     3     3     1     9
 -0.0051433746     3     3     1    10
 0.0300583077     3     3     2     1
 0.5254584571     3     3     2     2
 0.0032380271     3     3     2     4
 -0.0726084941     3     3     2     6
 0.0760301071     3     3     2     9
 -0.0196630217     3     3     2    10
 0.0104175992     3     3     4     1
 0.0032380271     3     3     4     2
 0.5628976110     3     3     4     4
 0.0390212234     3     3     4     6
 -0.0485287543     3     3     4     9
 -0.0942682748     3     3     4    10
 0.5872508077     3     3     5     5
 -0.0048109515     3     3     6     1
 -0.0726084941     3     3     6     2
 0.0390212234     3     3     6     4
 0.3382916829     3     3     6     6
 -0.0788315082     3     3     6     9
 -0.0385122090     3     3     6    10
 0.3023671669     3     3     7     7
 -0.0583844811     3     3     7     8
 -0.0583844811     3     3     8     7
 0.4340802988     3     3     8     8
 -0.0007141714     3     3     9     1
 0.0760301071     3     3     9     2
 -0.0485287543     3     3     9     4
 -0.0788315082     3     3     9     6
 0.4515480792     3     3     9     9
 0.0258330705     3     3     9    10
 -0.0051433746     3     3    10     1
 -0.0196630217     3     3    10     2
 -0.0942682748     3     3    10     4
 -0.0385122090     3     3    10     6
 0.0258330705     3     3    10     9
 0.4998957351     3     3    10    10
 -0.0104175992     3     4     1     3
 0.0023955611     3     4     1     7
 0.0025075239     3     4     1     8
 -0.0032380271     3     4     2     3
 0.0140599479     3     4     2     7
 -0.0340717382     3     4     2     8
 -0.5628976110     3     4     4     3
 0.0963216621     3     4     4     7
 -0.0564981828     3     4     4     8
 -0.0390212234     3     4     6     3
 0.0029746441     3     4     6     7
 -0.0089289221     3     4     6     8
 -0.0017885608     3     4     7     1
 0.0150609321     3     4     7     2
 -0.0088688270     3     4     7     6
 -0.0051910966     3     4     7     9
 0.0075684575     3     4     7    10
 0.0059913917     3     4     8     1
 -0.0391440062     3     4     8     2
 -0.0030062171     3     4     8     6
 0.0036195879     3     4     8     9
 -0.0142163263     3     4     8    10
 0.0485287543     3     4     9     3
 -0.0137833357     3     4     9     7
 -0.0082811391     3     4     9     8
 0.0942682748     3     4    10     3
 -0.0358569119     3     4    10     7
 0.0329568396     3     4    10     8
 -0.5872508077     3     5     5     3
 0.1018984037     3     5     5     7
 -0.0484626869     3     5     5     8
 0.0048109515     3     6     1     3
 -0.0033480114     3     6     1     7
 0.0050008851     3     6     1     8
 0.0726084941     3     6     2     3
 -0.0182753833     3     6     2     7
 0.0037631112     3     6     2     8
 -0.0390212234     3     6     4     3
 0.0108270168     3     6     4     7
 -0.0054051856     3     6     4     8
 -0.3382916829     3     6     6     3
 0.0354809146     3     6     6     7
 0.0165616996     3     6     6     8
 0.0025295418     3     6     7     1
 -0.0402022641     3     6     7     2
 0.0088688270     3     6     7     4
 0.0333317713     3     6     7     9
 -0.0112775525     3     6     7    10
 0.0003537395     3     6     8     1
 -0.0000416231     3     6     8     2
 0.0030062171     3     6     8     4
 0.0151699890     3     6     8     9
 0.0049681891     3     6     8    10
 0.0788315082     3     6     9     3
 -0.0192058220     3     6     9     7
 0.0168063608     3     6     9     8
 0.0385122090     3     6    10     3
 -0.0034928780     3     6    10     7
 -0.0065710172     3     6    10     8
 -0.2025642356     3     7     1     1
 -0.0155933323     3     7     1     2
 -0.0023955611     3     7     1     4
 0.0033480114     3     7     1     6
 -0.0009088834     3     7     1     9
 -0.0002827093     3     7     1    10
 -0.0117072429     3     7     2     1
 -0.0778139148     3     7     2     2
 -0.0140599479     3     7     2     4
 0.0182753833     3     7     2     6
 -0.0192742371     3     7     2     9
 0.0035274517     3     7     2    10
 -0.0040719309     3     7     4     1
 0.0009144919     3     7     4     2
 -0.0963216621     3     7     4     4
 -0.0108270168     3     7     4     6
 0.0077332833     3     7     4     9
 0.0403652915     3     7     4    10
 -0.1018984037     3     7     5     5
 0.0059162849     3     7     6     1
 -0.0213377123     3     7     6     2