&FCI NORB= 13,NELEC= 10,MS2=0,
 ORBSYM=1,1,1,1,1,1,1,1,1,1,1,1,1
 ISYM=1,
&END
 0.9844782236     1     1     2     2
 0.0662922767     1     1     2     4
 0.0879832153     1     1     2     6
 -0.0533797663     1     1     2     8
 -0.1045114254     1     1     2    11
 0.0348793073     1     1     2    13
 0.8714437946     1     1     3     3
 0.0926455969     1     1     3     7
 0.0470278385     1     1     3    10
 -0.1947756438     1     1     3    12
 0.0662922767     1     1     4     2
 0.9497686691     1     1     4     4
 -0.0502790588     1     1     4     6
 -0.1021541139     1     1     4     8
 0.1390344675     1     1     4    11
 -0.0268051503     1     1     4    13
 0.9940492930     1     1     5     5
 -0.1750554041     1     1     5     9
 0.0879832153     1     1     6     2
 -0.0502790588     1     1     6     4
 0.2480894961     1     1     6     6
 -0.0195166501     1     1     6     8
 -0.0963373364     1     1     6    11
 0.0297784535     1     1     6    13
 0.0926455969     1     1     7     3
 0.2102257367     1     1     7     7
 0.0000000002     1     1     7     8
 0.0242974434     1     1     7    10
 0.0000000001     1     1     7    11
 -0.1044866982     1     1     7    12
 -0.0533797663     1     1     8     2
 -0.1021541139     1     1     8     4
 -0.0195166501     1     1     8     6
 0.0000000002     1     1     8     7
 0.2759010748     1     1     8     8
 -0.0000000001     1     1     8    10
 -0.0157517621     1     1     8    11
 0.0000000002     1     1     8    12
 0.0122350099     1     1     8    13
 -0.1750554041     1     1     9     5
 0.3213621245     1     1     9     9
 0.0470278385     1     1    10     3
 0.0242974434     1     1    10     7
 -0.0000000001     1     1    10     8
 0.2768280629     1     1    10    10
 -0.0507420461     1     1    10    12
 -0.1045114254     1     1    11     2
 0.1390344675     1     1    11     4
 -0.0963373365     1     1    11     6
 0.0000000001     1     1    11     7
 -0.0157517621     1     1    11     8
 0.3623848038     1     1    11    11
 -0.0178374892     1     1    11    13
 -0.1947756438     1     1    12     3
 -0.1044866982     1     1    12     7
 0.0000000002     1     1    12     8
 -0.0507420461     1     1    12    10
 0.3843015637     1     1    12    12
 0.0348793073     1     1    13     2
 -0.0268051503     1     1    13     4
 0.0297784535     1     1    13     6
 0.0122350099     1     1    13     8
 -0.0178374892     1     1    13    11
 0.0000000001     1     1    13    12
 0.2983569523     1     1    13    13
 -0.9844782236     1     2     2     1
 -0.0070625639     1     2     2     4
 0.0008714785     1     2     2     6
 0.0017370491     1     2     2     8
 -0.0028561286     1     2     2    11
 0.0007208983     1     2     2    13
 0.0312472218     1     2     3     3
 0.0067056461     1     2     3     7
 0.0049330043     1     2     3    10
 -0.0168107081     1     2     3    12
 -0.0662922767     1     2     4     1
 0.0360588413     1     2     4     4
 -0.0046088437     1     2     4     6
 -0.0062903266     1     2     4     8
 0.0123849992     1     2     4    11
 -0.0031288451     1     2     4    13
 0.0407462136     1     2     5     5
 -0.0129717973     1     2     5     9
 -0.0879832153     1     2     6     1
 -0.0043646254     1     2     6     4
 0.0007162105     1     2     6     6
 0.0007857874     1     2     6     8
 -0.0020192679     1     2     6    11
 0.0004789191     1     2     6    13
 0.0049133271     1     2     7     3
 0.0013670886     1     2     7     7
 -0.0000000001     1     2     7     8
 0.0009131696     1     2     7    10
 -0.0035897596     1     2     7    12
 0.0533797663     1     2     8     1
 -0.0044327493     1     2     8     4
 0.0005011998     1     2     8     6
 -0.0000000001     1     2     8     7
 0.0014903376     1     2     8     8
 -0.0020859298     1     2     8    11
 0.0002613686     1     2     8    13
 -0.0099196523     1     2     9     5
 0.0044799108     1     2     9     9
 0.0033435571     1     2    10     3
 0.0008200666     1     2    10     7
 0.0007897116     1     2    10    10
 -0.0021267561     1     2    10    12
 0.1045114254     1     2    11     1
 0.0103077851     1     2    11     4
 -0.0017250110     1     2    11     6
 -0.0025008715     1     2    11     8
 0.0047314257     1     2    11    11
 -0.0010086115     1     2    11    13
 -0.0115495308     1     2    12     3
 -0.0033562917     1     2    12     7
 -0.0021941522     1     2    12    10
 0.0082344250     1     2    12    12
 -0.0348793073     1     2    13     1
 -0.0023168322     1     2    13     4
 0.0003524571     1     2    13     6
 0.0003037058     1     2    13     8
 -0.0008740099     1     2    13    11
 0.0000774282     1     2    13    13
 0.0012523438     1     3     2     7
 0.0012457200     1     3     2    10
 -0.0040254186     1     3     2    12
 -0.8714437946     1     3     3     1
 -0.0312472218     1     3     3     2
 -0.0105611510     1     3     3     4
 -0.0029880542     1     3     3     6
 0.0035831093     1     3     3     8
 0.0011562202     1     3     3    11
 -0.0029420327     1     3     3    13
 -0.0004848000     1     3     4     7
 -0.0021927471     1     3     4    10
 0.0015111076     1     3     4    12
 -0.0012392619     1     3     6     7
 0.0000922626     1     3     6    10
 0.0011838558     1     3     6    12
 -0.0926455969     1     3     7     1
 -0.0049133271     1     3     7     2
 -0.0017373886     1     3     7     4
 -0.0020100373     1     3     7     6
 0.0012615854     1     3     7     8
 0.0013450847     1     3     7    11
 -0.0000049606     1     3     7    13
 0.0006696130     1     3     8     7
 -0.0007645744     1     3     8    10
 -0.0017343077     1     3     8    12
 -0.0470278385     1     3    10     1
 -0.0033435571     1     3    10     2
 -0.0011013588     1     3    10     4
 -0.0007802579     1     3    10     6
 -0.0007273973     1     3    10     8
 0.0019711705     1     3    10    11
 -0.0007009598     1     3    10    13
 0.0007875890     1     3    11     7
 0.0007376531     1     3    11    10
 -0.0021300346     1     3    11    12
 0.1947756438     1     3    12     1
 0.0115495308     1     3    12     2
 0.0040082260     1     3    12     4
 0.0032337482     1     3    12     6
 -0.0030969761     1     3    12     8
 -0.0038354533     1     3    12    11
 0.0008163689     1     3    12    13
 0.0007389473     1     3    13     7
 0.0000020744     1     3    13    10
 -0.0010944419     1     3    13    12
 -0.0662922767     1     4     2     1
 0.0070625639     1     4     2     2
 0.0002019435     1     4     2     6
 -0.0013423004     1     4     2     8
 0.0010224978     1     4     2    11
 -0.0005432436     1     4     2    13
 0.0105611510     1     4     3     3
 0.0013749063     1     4     3     7
 -0.0010570084     1     4     3    10
 -0.0027842875     1     4     3    12
 -0.9497686691     1     4     4     1
 -0.0360588413     1     4     4     2
 -0.0057754564     1     4     4     6
 0.0026112571     1     4     4     8
 0.0083584867     1     4     4    11
 -0.0003501887     1     4     4    13
 0.0135955574     1     4     5     5
 -0.0041815724     1     4     5     9
 0.0502790588     1     4     6     1
 0.0043646254     1     4     6     2
 0.0020408314     1     4     6     6
 0.0005369183     1     4     6     8
 -0.0026086829     1     4     6    11
 0.0006834400     1     4     6    13
 0.0017373886     1     4     7     3
 0.0010097476     1     4     7     7
 -0.0000000001     1     4     7     8
 0.0008495867     1     4     7    10
 -0.0012363569     1     4     7    12
 0.1021541139     1     4     8     1
 0.0044327493     1     4     8     2
 0.0018901446     1     4     8     6
 -0.0000000001     1     4     8     7
 -0.0017022831     1     4     8     8
 0.0000000001     1     4     8    10
 -0.0008164003     1     4     8    11
 -0.0000000001     1     4     8    12
 0.0014627095     1     4     8    13
 -0.0034982696     1     4     9     5
 0.0014742285     1     4     9     9
 0.0011013588     1     4    10     3
 0.0012912199     1     4    10     7
 0.0000000001     1     4    10     8
 -0.0000410993     1     4    10    10
 -0.0026748014     1     4    10    12
 -0.1390344675     1     4    11     1
 -0.0103077851     1     4    11     2
 -0.0035383519     1     4    11     6
 0.0015602087     1     4    11     8
 0.0051878208     1     4    11    11
 -0.0017644658     1     4    11    13
 -0.0040082260     1     4    12     3
 -0.0013146183     1     4    12     7
 -0.0000000001     1     4    12     8
 -0.0016419466     1     4    12    10
 0.0034670957     1     4    12    12
 0.0268051503     1     4    13     1
 0.0023168322     1     4    13     2
 0.0011766023     1     4    13     6
 0.0012204049     1     4    13     8
 -0.0024506596     1     4    13    11
 0.0017444042     1     4    13    13
 -0.0019862977     1     5     2     9
 -0.0004293923     1     5     4     9
 -0.9940492930     1     5     5     1
 -0.0407462136     1     5     5     2
 -0.0135955574     1     5     5     4
 -0.0053066685     1     5     5     6
 0.0064215343     1     5     5     8
 0.0068322104     1     5     5    11
 -0.0020173543     1     5     5    13
 0.0017717984     1     5     6     9
 -0.0001969512     1     5     8     9
 0.1750554041     1     5     9     1
 0.0099196523     1     5     9     2
 0.0034982696     1     5     9     4
 0.0035269096     1     5     9     6
 -0.0022605748     1     5     9     8
 -0.0019045046     1     5     9    11
 0.0009048140     1     5     9    13
 0.0004389226     1     5    11     9
 0.0002363847     1     5    13     9
 -0.0879832153     1     6     2     1
 -0.0008714785     1     6     2     2
 -0.0002019435     1     6     2     4
 0.0002941659     1     6     2     8
 -0.0003130296     1     6     2    11
 0.0001329182     1     6     2    13
 0.0029880542     1     6     3     3
 0.0007579307     1     6     3     7
 0.0008793501     1     6     3    10
 -0.0020522252     1     6     3    12
 0.0502790588     1     6     4     1
 0.0046088437     1     6     4     2
 0.0057754564     1     6     4     4
 -0.0013500771     1     6     4     8
 0.0009494612     1     6     4    11
 -0.0004931502     1     6     4    13
 0.0053066685     1     6     5     5
 -0.0017229332     1     6     5     9
 -0.2480894961     1     6     6     1
 -0.0007162105     1     6     6     2
 -0.0020408314     1     6     6     4
 0.0002988131     1     6     6     8
 -0.0004152554     1     6     6    11
 0.0000833518     1     6     6    13
 0.0020100373     1     6     7     3
 0.0003922277     1     6     7     7
 0.0002426263     1     6     7    10
 -0.0011670428     1     6     7    12
 0.0195166501     1     6     8     1
 -0.0005011998     1     6     8     2
 -0.0018901446     1     6     8     4
 0.0006589876     1     6     8     8
 -0.0006600557     1     6     8    11
 -0.0000585431     1     6     8    13
 -0.0035269096     1     6     9     5
 0.0012849559     1     6     9     9
 0.0007802579     1     6    10     3
 0.0000340521     1     6    10     7
 0.0001687461     1     6    10    10
 -0.0001640098     1     6    10    12
 0.0963373365     1     6    11     1
 0.0017250110     1     6    11     2
 0.0035383519     1     6    11     4
 -0.0009539890     1     6    11     8
 0.0006322989     1     6    11    11
 -0.0000574582     1     6    11    13
 -0.0032337482     1     6    12     3
 -0.0007577355     1     6    12     7
 -0.0004017299     1     6    12    10
 0.0018310804     1     6    12    12
 -0.0297784535     1     6    13     1
 -0.0003524571     1     6    13     2
 -0.0011766023     1     6    13     4
 0.0000272266     1     6    13     8
 -0.0000886008     1     6    13    11
 -0.0001790773     1     6    13    13
 -0.0012523438     1     7     2     3
 0.0000901240     1     7     2    10
 -0.0002163886     1     7     2    12
 -0.0926455969     1     7     3     1
 -0.0067056461     1     7     3     2
 -0.0013749063     1     7     3     4
 -0.0007579307     1     7     3     6
 0.0006001573     1     7     3     8
 0.0005281427     1     7     3    11
 -0.0007346362     1     7     3    13
 0.0004848000     1     7     4     3
 -0.0004409397     1     7     4    10
 0.0000837064     1     7     4    12
 0.0012392619     1     7     6     3
 0.0002082078     1     7     6    10
 -0.0004080038     1     7     6    12
 -0.2102257367     1     7     7     1
 -0.0013670886     1     7     7     2
 -0.0010097476     1     7     7     4
 -0.0003922277     1     7     7     6
 0.0004038448     1     7     7     8
 0.0001269560     1     7     7    11
 0.0000365657     1     7     7    13
 -0.0000000002     1     7     8     1
 0.0000000001     1     7     8     2
 -0.0006696130     1     7     8     3
 0.0000000001     1     7     8     4
 -0.0002747589     1     7     8    10
 -0.0000194410     1     7     8    12
 -0.0242974434     1     7    10     1
 -0.0008200666     1     7    10     2
 -0.0012912199     1     7    10     4
 -0.0000340521     1     7    10     6
 0.0000302882     1     7    10     8
 0.0000682515     1     7    10    11
 -0.0000758424     1     7    10    13
 -0.0000000001     1     7    11     1
 -0.0007875890     1     7    11     3
 0.0000450962     1     7    11    10
 -0.0000445825     1     7    11    12
 0.1044866982     1     7    12     1
 0.0033562917     1     7    12     2
 0.0013146183     1     7    12     4
 0.0007577355     1     7    12     6
 -0.0007940306     1     7    12     8
 -0.0008487217     1     7    12    11
 0.0001904512     1     7    12    13
 -0.0007389473     1     7    13     3
 -0.0001105785     1     7    13    10
 0.0001573218     1     7    13    12
 0.0533797663     1     8     2     1
 -0.0017370491     1     8     2     2
 0.0013423004     1     8     2     4
 -0.0002941659     1     8     2     6
 0.0004539428     1     8     2    11
 -0.0000564783     1     8     2    13
 -0.0035831093     1     8     3     3
 -0.0006001573     1     8     3     7
 -0.0000538414     1     8     3    10
 0.0014249899     1     8     3    12
 0.1021541139     1     8     4     1
 0.0062903266     1     8     4     2
 -0.0026112571     1     8     4     4
 0.0013500771     1     8     4     6
 -0.0023880734     1     8     4    11
 0.0002359099     1     8     4    13
 -0.0064215343     1     8     5     5
 0.0020815050     1     8     5     9
 0.0195166501     1     8     6     1
 -0.0007857874     1     8     6     2
 -0.0005369183     1     8     6     4
 -0.0002988131     1     8     6     6
 0.0002950966     1     8     6    11
 -0.0000861772     1     8     6    13
 -0.0000000002     1     8     7     1
 0.0000000001     1     8     7     2
 -0.0012615854     1     8     7     3
 0.0000000001     1     8     7     4
 -0.0004038448     1     8     7     7
 -0.0003051164     1     8     7    10
 0.0007755555     1     8     7    12
 -0.2759010748     1     8     8     1
 -0.0014903376     1     8     8     2
 0.0017022831     1     8     8     4
 -0.0006589876     1     8     8     6
 0.0009188976     1     8     8    11
 -0.0004435917     1     8     8    13
 0.0022605748     1     8     9     5
 -0.0008533823     1     8     9     9
 0.0000000001     1     8    10     1
 0.0007273973     1     8    10     3
 -0.0000000001     1     8    10     4
 -0.0000302882     1     8    10     7
 0.0001503755     1     8    10    10
 -0.0000108493     1     8    10    12
 0.0157517621     1     8    11     1
 0.0025008715     1     8    11     2
 -0.0015602087     1     8    11     4
 0.0009539890     1     8    11     6
 -0.0016748946     1     8    11    11
 0.0004950502     1     8    11    13
 -0.0000000002     1     8    12     1
 0.0030969761     1     8    12     3
 0.0000000001     1     8    12     4
 0.0007940306     1     8    12     7
 0.0006758098     1     8    12    10
 -0.0019962132     1     8    12    12
 -0.0122350099     1     8    13     1
 -0.0003037058     1     8    13     2
 -0.0012204049     1     8    13     4
 -0.0000272266     1     8    13     6
 -0.0000223578     1     8    13    11
 -0.0001975386     1     8    13    13
 0.0019862977     1     9     2     5
 0.0004293923     1     9     4     5
 0.1750554041     1     9     5     1
 0.0129717973     1     9     5     2
 0.0041815724     1     9     5     4
 0.0017229332     1     9     5     6
 -0.0020815050     1     9     5     8
 -0.0022648377     1     9     5    11
 0.0006508411     1     9     5    13
 -0.0017717984     1     9     6     5
 0.0001969512     1     9     8     5
 -0.3213621245     1     9     9     1
 -0.0044799108     1     9     9     2
 -0.0014742285     1     9     9     4
 -0.0012849559     1     9     9     6
 0.0008533823     1     9     9     8
 0.0007463159     1     9     9    11
 -0.0003415333     1     9     9    13
 -0.0004389226     1     9    11     5
 -0.0002363847     1     9    13     5
 -0.0012457200     1    10     2     3
 -0.0000901240     1    10     2     7
 0.0000720554     1    10     2    12
 -0.0470278385     1    10     3     1
 -0.0049330043     1    10     3     2
 0.0010570084     1    10     3     4
 -0.0008793501     1    10     3     6
 0.0000538414     1    10     3     8
 0.0012386507     1    10     3    11
 -0.0006960642     1    10     3    13
 0.0021927471     1    10     4     3
 0.0004409397     1    10     4     7
 -0.0010230950     1    10     4    12
 -0.0000922626     1    10     6     3
 -0.0002082078     1    10     6     7
 0.0002377903     1    10     6    12
 -0.0242974434     1    10     7     1
 -0.0009131696     1    10     7     2
 -0.0008495867     1    10     7     4
 -0.0002426263     1    10     7     6
 0.0003051164     1    10     7     8
 0.0000238574     1    10     7    11
 0.0000341071     1    10     7    13
 0.0000000001     1    10     8     1
 0.0007645744     1    10     8     3
 -0.0000000001     1    10     8     4
 0.0002747589     1    10     8     7
 -0.0006858341     1    10     8    12
 -0.2768280629     1    10    10     1
 -0.0007897116     1    10    10     2
 0.0000410993     1    10    10     4
 -0.0001687461     1    10    10     6
 -0.0001503755     1    10    10     8
 0.0004217630     1    10    10    11
 -0.0001321201     1    10    10    13
 -0.0007376531     1    10    11     3
 -0.0000450962     1    10    11     7
 0.0000771849     1    10    11    12
 0.0507420461     1    10    12     1
 0.0021941522     1    10    12     2
 0.0016419466     1    10    12     4
 0.0004017299     1    10    12     6
 -0.0006758098     1    10    12     8
 -0.0002870436     1    10    12    11
 0.0000669648     1    10    12    13
 -0.0000020744     1    10    13     3
 0.0001105785     1    10    13     7
 -0.0001622501     1    10    13    12
 0.1045114254     1    11     2     1
 0.0028561286     1    11     2     2
 -0.0010224978     1    11     2     4
 0.0003130296     1    11     2     6
 -0.0004539428     1    11     2     8
 -0.0001326268     1    11     2    13
 -0.0011562202     1    11     3     3
 -0.0005281427     1    11     3     7
 -0.0012386507     1    11     3    10
 0.0016735688     1    11     3    12
 -0.1390344675     1    11     4     1
 -0.0123849992     1    11     4     2
 -0.0083584867     1    11     4     4
 -0.0009494612     1    11     4     6
 0.0023880734     1    11     4     8
 0.0006738204     1    11     4    13
 -0.0068322104     1    11     5     5
 0.0022648377     1    11     5     9
 0.0963373364     1    11     6     1
 0.0020192679     1    11     6     2
 0.0026086829     1    11     6     4
 0.0004152554     1    11     6     6
 -0.0002950966     1    11     6     8
 0.0000312793     1    11     6    13
 -0.0000000001     1    11     7     1
 -0.0013450847     1    11     7     3
 -0.0001269560     1    11     7     7
 -0.0000238574     1    11     7    10
 0.0008053460     1    11     7    12
 0.0157517621     1    11     8     1
 0.0020859298     1    11     8     2
 0.0008164003     1    11     8     4
 0.0006600557     1    11     8     6
 -0.0009188976     1    11     8     8
 0.0005164252     1    11     8    13
 0.0019045046     1    11     9     5
 -0.0007463159     1    11     9     9
 -0.0019711705     1    11    10     3
 -0.0000682515     1    11    10     7
 -0.0004217630     1    11    10    10
 0.0003643713     1    11    10    12
 -0.3623848038     1    11    11     1
 -0.0047314257     1    11    11     2
 -0.0051878208     1    11    11     4
 -0.0006322989     1    11    11     6
 0.0016748946     1    11    11     8
 -0.0002278451     1    11    11    13
 0.0038354533     1    11    12     3
 0.0008487217     1    11    12     7
 0.0002870436     1    11    12    10
 -0.0020019795     1    11    12    12
 0.0178374892     1    11    13     1
 0.0008740099     1    11    13     2
 0.0024506596     1    11    13     4
 0.0000886008     1    11    13     6
 0.0000223578     1    11    13     8
 0.0004758029     1    11    13    13
 0.0040254186     1    12     2     3
 0.0002163886     1    12     2     7
 -0.0000720554     1    12     2    10
 0.1947756438     1    12     3     1
 0.0168107081     1    12     3     2
 0.0027842875     1    12     3     4
 0.0020522252     1    12     3     6
 -0.0014249899     1    12     3     8
 -0.0016735688     1    12     3    11
 0.0018908395     1    12     3    13
 -0.0015111076     1    12     4     3
 -0.0000837064     1    12     4     7
 0.0010230950     1    12     4    10
 -0.0011838558     1    12     6     3
 0.0004080038     1    12     6     7
 -0.0002377903     1    12     6    10
 0.1044866982     1    12     7     1
 0.0035897596     1    12     7     2
 0.0012363569     1    12     7     4
 0.0011670428     1    12     7     6
 -0.0007755555     1    12     7     8
 -0.0008053460     1    12     7    11
 0.0000346464     1    12     7    13
 -0.0000000002     1    12     8     1
 0.0017343077     1    12     8     3
 0.0000000001     1    12     8     4
 0.0000194410     1    12     8     7
 0.0006858341     1    12     8    10
 0.0507420461     1    12    10     1
 0.0021267561     1    12    10     2
 0.0026748014     1    12    10     4
 0.0001640098     1    12    10     6
 0.0000108493     1    12    10     8
 -0.0003643713     1    12    10    11
 0.0002286996     1    12    10    13
 0.0021300346     1    12    11     3
 0.0000445825     1    12    11     7
 -0.0000771849     1    12    11    10
 -0.3843015637     1    12    12     1
 -0.0082344250     1    12    12     2
 -0.0034670957     1    12    12     4
 -0.0018310804     1    12    12     6
 0.0019962132     1    12    12     8
 0.0020019795     1    12    12    11
 -0.0004516019     1    12    12    13
 -0.0000000001     1    12    13     1
 0.0010944419     1    12    13     3
 -0.0001573218     1    12    13     7
 0.0001622501     1    12    13    10
 -0.0348793073     1    13     2     1
 -0.0007208983     1    13     2     2
 0.0005432436     1    13     2     4
 -0.0001329182     1    13     2     6
 0.0000564783     1    13     2     8
 0.0001326268     1    13     2    11
 0.0029420327     1    13     3     3
 0.0007346362     1    13     3     7
 0.0006960642     1    13     3    10
 -0.0018908395     1    13     3    12
 0.0268051503     1    13     4     1
 0.0031288451     1    13     4     2
 0.0003501887     1    13     4     4
 0.0004931502     1    13     4     6
 -0.0002359099     1    13     4     8
 -0.0006738204     1    13     4    11
 0.0020173543     1    13     5     5
 -0.0006508411     1    13     5     9
 -0.0297784535     1    13     6     1
 -0.0004789191     1    13     6     2
 -0.0006834400     1    13     6     4
 -0.0000833518     1    13     6     6
 0.0000861772     1    13     6     8
 -0.0000312793     1    13     6    11
 0.0000049606     1    13     7     3
 -0.0000365657     1    13     7     7
 -0.0000341071     1    13     7    10
 -0.0000346464     1    13     7    12
 -0.0122350099     1    13     8     1
 -0.0002613686     1    13     8     2
 -0.0014627095     1    13     8     4
 0.0000585431     1    13     8     6
 0.0004435917     1    13     8     8
 -0.0005164252     1    13     8    11
 -0.0009048140     1    13     9     5
 0.0003415333     1    13     9     9
 0.0007009598     1    13    10     3
 0.0000758424     1    13    10     7
 0.0001321201     1    13    10    10
 -0.0002286996     1    13    10    12
 0.0178374892     1    13    11     1
 0.0010086115     1    13    11     2
 0.0017644658     1    13    11     4
 0.0000574582     1    13    11     6
 -0.0004950502     1    13    11     8
 0.0002278451     1    13    11    11
 -0.0008163689     1    13    12     3
 -0.0001904512     1    13    12     7
 -0.0000669648     1    13    12    10
 0.0004516019     1    13    12    12
 -0.2983569523     1    13    13     1
 -0.0000774282     1    13    13     2
 -0.0017444042     1    13    13     4
 0.0001790773     1    13    13     6
 0.0001975386     1    13    13     8
 -0.0004758029     1    13    13    11
 -0.9844782236     2     1     1     2
 -0.0662922767     2     1     1     4
 -0.0879832153     2     1     1     6
 0.0533797663     2     1     1     8
 0.1045114254     2     1     1    11
 -0.0348793073     2     1     1    13
 0.0312472218     2     1     3     3
 0.0049133271     2     1     3     7
 0.0033435571     2     1     3    10
 -0.0115495308     2     1     3    12
 -0.0070625639     2     1     4     2
 0.0360588413     2     1     4     4
 -0.0043646254     2     1     4     6
 -0.0044327493     2     1     4     8
 0.0103077851     2     1     4    11
 -0.0023168322     2     1     4    13
 0.0407462136     2     1     5     5
 -0.0099196523     2     1     5     9
 0.0008714785     2     1     6     2
 -0.0046088437     2     1     6     4
 0.0007162105     2     1     6     6
 0.0005011998     2     1     6     8
 -0.0017250110     2     1     6    11
 0.0003524571     2     1     6    13
 0.0067056461     2     1     7     3
 0.0013670886     2     1     7     7
 0.0008200666     2     1     7    10
 -0.0033562917     2     1     7    12
 0.0017370491     2     1     8     2
 -0.0062903266     2     1     8     4
 0.0007857874     2     1     8     6
 0.0014903376     2     1     8     8
 -0.0025008715     2     1     8    11
 0.0003037058     2     1     8    13
 -0.0129717973     2     1     9     5
 0.0044799108     2     1     9     9
 0.0049330043     2     1    10     3
 0.0009131696     2     1    10     7
 0.0007897116     2     1    10    10
 -0.0021941522     2     1    10    12
 -0.0028561286     2     1    11     2
 0.0123849992     2     1    11     4
 -0.0020192679     2     1    11     6
 -0.0020859298     2     1    11     8
 0.0047314257     2     1    11    11
 -0.0008740099     2     1    11    13
 -0.0168107081     2     1    12     3
 -0.0035897596     2     1    12     7
 -0.0021267561     2     1    12    10
 0.0082344250     2     1    12    12
 0.0007208983     2     1    13     2
 -0.0031288451     2     1    13     4
 0.0004789191     2     1    13     6
 0.0002613686     2     1    13     8
 -0.0010086115     2     1    13    11
 0.0000774282     2     1    13    13
 0.9844782236     2     2     1     1
 0.0070625639     2     2     1     4
 -0.0008714785     2     2     1     6
 -0.0017370491     2     2     1     8
 0.0028561286     2     2     1    11
 -0.0007208983     2     2     1    13
 0.5287307018     2     2     3     3
 0.0401094497     2     2     3     7
 0.0115122860     2     2     3    10
 -0.0736730303     2     2     3    12
 0.0070625639     2     2     4     1
 0.5505195268     2     2     4     4
 -0.0224198663     2     2     4     6
 -0.0446423913     2     2     4     8
 0.0559673936     2     2     4    11
 -0.0062079690     2     2     4    13
 0.5767161670     2     2     5     5
 -0.0762102934     2     2     5     9
 -0.0008714785     2     2     6     1
 -0.0224198663     2     2     6     4
 0.2311543067     2     2     6     6
 0.0000000002     2     2     6     7
 -0.0114319139     2     2     6     8
 -0.0000000001     2     2     6    10
 -0.0667877918     2     2     6    11
 0.0000000002     2     2     6    12
 0.0218192860     2     2     6    13
 0.0401094497     2     2     7     3
 0.0000000002     2     2     7     6
 0.1997643747     2     2     7     7
 -0.0000000010     2     2     7     8
 0.0190930612     2     2     7    10
 -0.0000000004     2     2     7    11
 -0.0721710096     2     2     7    12
 -0.0000000002     2     2     7    13
 -0.0017370491     2     2     8     1
 -0.0446423913     2     2     8     4
 -0.0114319139     2     2     8     6
 -0.0000000010     2     2     8     7
 0.2476303747     2     2     8     8
 0.0000000007     2     2     8    10
 -0.0047583346     2     2     8    11
 -0.0000000008     2     2     8    12
 0.0180015565     2     2     8    13
 -0.0762102934     2     2     9     5
 0.2768386192     2     2     9     9
 0.0115122860     2     2    10     3
 -0.0000000001     2     2    10     6
 0.0190930612     2     2    10     7
 0.0000000007     2     2    10     8
 0.2640943935     2     2    10    10
 0.0000000003     2     2    10    11
 -0.0340281688     2     2    10    12
 -0.0000000002     2     2    10    13
 0.0028561286     2     2    11     1
 0.0559673936     2     2    11     4
 -0.0667877918     2     2    11     6
 -0.0000000004     2     2    11     7
 -0.0047583347     2     2    11     8
 0.0000000003     2     2    11    10
 0.3033638360     2     2    11    11
 -0.0000000002     2     2    11    12
 -0.0077348826     2     2    11    13
 -0.0736730303     2     2    12     3
 0.0000000002     2     2    12     6
 -0.0721710096     2     2    12     7
 -0.0000000008     2     2    12     8
 -0.0340281688     2     2    12    10
 -0.0000000002     2     2    12    11
 0.3092971475     2     2    12    12
 -0.0000000003     2     2    12    13