&FCI NORB=  6,NELEC= 10,MS2=0,
 ORBSYM=1,1,1,1,1,1
 ISYM=1,
&END
 0.9838885541     1     1     2     2
 0.0676918207     1     1     2     4
 -0.1249047762     1     1     2     6
 0.8671653299     1     1     3     3
 0.0676918207     1     1     4     2
 0.9496373568     1     1     4     4
 0.0616959812     1     1     4     6
 0.9969865945     1     1     5     5
 -0.1249047762     1     1     6     2
 0.0616959812     1     1     6     4
 0.3485677301     1     1     6     6
 -0.9838885541     1     2     2     1
 -0.0070668319     1     2     2     4
 -0.0010691453     1     2     2     6
 0.0309664652     1     2     3     3
 -0.0676918207     1     2     4     1
 0.0359545949     1     2     4     4
 0.0066860407     1     2     4     6
 0.0408660094     1     2     5     5
 0.1249047762     1     2     6     1
 0.0062411256     1     2     6     4
 0.0018443335     1     2     6     6
 -0.8671653299     1     3     3     1
 -0.0309664652     1     3     3     2
 -0.0105915365     1     3     3     4
 0.0044990562     1     3     3     6
 -0.0676918207     1     4     2     1
 0.0070668319     1     4     2     2
 -0.0002137492     1     4     2     6
 0.0105915365     1     4     3     3
 -0.9496373568     1     4     4     1
 -0.0359545949     1     4     4     2
 0.0089277026     1     4     4     6
 0.0137350204     1     4     5     5
 -0.0616959812     1     4     6     1
 -0.0062411256     1     4     6     2
 0.0039874803     1     4     6     6
 -0.9969865945     1     5     5     1
 -0.0408660094     1     5     5     2
 -0.0137350204     1     5     5     4
 0.0086625888     1     5     5     6
 0.1249047762     1     6     2     1
 0.0010691453     1     6     2     2
 0.0002137492     1     6     2     4
 -0.0044990562     1     6     3     3
 -0.0616959812     1     6     4     1
 -0.0066860407     1     6     4     2
 -0.0089277026     1     6     4     4
 -0.0086625888     1     6     5     5
 -0.3485677301     1     6     6     1
 -0.0018443335     1     6     6     2
 -0.0039874803     1     6     6     4
 -0.9838885541     2     1     1     2
 -0.0676918207     2     1     1     4
 0.1249047762     2     1     1     6
 0.0309664652     2     1     3     3
 -0.0070668319     2     1     4     2
 0.0359545949     2     1     4     4
 0.0062411256     2     1     4     6
 0.0408660094     2     1     5     5
 -0.0010691453     2     1     6     2
 0.0066860407     2     1     6     4
 0.0018443335     2     1     6     6
 0.9838885541     2     2     1     1
 0.0070668319     2     2     1     4
 0.0010691453     2     2     1     6
 0.5271825390     2     2     3     3
 0.0070668319     2     2     4     1
 0.5508232164     2     2     4     4
 0.0252894289     2     2     4     6
 0.5783297848     2     2     5     5
 0.0010691453     2     2     6     1
 0.0252894289     2     2     6     4
 0.3035853689     2     2     6     6
 -0.0309664652     2     3     3     1
 -0.5271825390     2     3     3     2
 -0.0019038219     2     3     3     4
 0.0583892786     2     3     3     6
 0.0676918207     2     4     1     1
 -0.0070668319     2     4     1     2
 0.0002137492     2     4     1     6
 0.0019038219     2     4     3     3
 -0.0359545949     2     4     4     1
 -0.5508232164     2     4     4     2
 0.0571620818     2     4     4     6
 0.0044937913     2     4     5     5
 -0.0066860407     2     4     6     1
 -0.0252894289     2     4     6     2
 -0.0112700564     2     4     6     6
 -0.0408660094     2     5     5     1
 -0.5783297848     2     5     5     2
 -0.0044937913     2     5     5     4
 0.0560175153     2     5     5     6
 -0.1249047762     2     6     1     1
 -0.0010691453     2     6     1     2
 -0.0002137492     2     6     1     4
 -0.0583892786     2     6     3     3
 -0.0062411256     2     6     4     1
 -0.0252894289     2     6     4     2
 -0.0571620818     2     6     4     4
 -0.0560175153     2     6     5     5
 -0.0018443335     2     6     6     1
 -0.3035853689     2     6     6     2
 0.0112700564     2     6     6     4
 -0.8671653299     3     1     1     3
 -0.0309664652     3     1     2     3
 -0.0105915365     3     1     4     3
 0.0044990562     3     1     6     3
 -0.0309664652     3     2     1     3
 -0.5271825390     3     2     2     3
 -0.0019038219     3     2     4     3
 0.0583892786     3     2     6     3
 0.8671653299     3     3     1     1
 0.0309664652     3     3     1     2
 0.0105915365     3     3     1     4
 -0.0044990562     3     3     1     6
 0.0309664652     3     3     2     1
 0.5271825390     3     3     2     2
 0.0019038219     3     3     2     4
 -0.0583892786     3     3     2     6
 0.0105915365     3     3     4     1
 0.0019038219     3     3     4     2
 0.5615588374     3     3     4     4
 0.0291266258     3     3     4     6
 0.5852787909     3     3     5     5
 -0.0044990562     3     3     6     1
 -0.0583892786     3     3     6     2
 0.0291266258     3     3     6     4
 0.3064933000     3     3     6     6
 -0.0105915365     3     4     1     3
 -0.0019038219     3     4     2     3
 -0.5615588374     3     4     4     3
 -0.0291266258     3     4     6     3
 -0.5852787909     3     5     5     3
 0.0044990562     3     6     1     3
 0.0583892786     3     6     2     3
 -0.0291266258     3     6     4     3
 -0.3064933000     3     6     6     3
 -0.0676918207     4     1     1     2
 -0.9496373568     4     1     1     4
 -0.0616959812     4     1     1     6
 0.0070668319     4     1     2     2
 -0.0359545949     4     1     2     4
 -0.0062411256     4     1     2     6
 0.0105915365     4     1     3     3
 0.0137350204     4     1     5     5
 -0.0002137492     4     1     6     2
 0.0089277026     4     1     6     4
 0.0039874803     4     1     6     6
 0.0676918207     4     2     1     1
 -0.0359545949     4     2     1     4
 -0.0066860407     4     2     1     6
 -0.0070668319     4     2     2     1
 -0.5508232164     4     2     2     4
 -0.0252894289     4     2     2     6
 0.0019038219     4     2     3     3
 0.0044937913     4     2     5     5
 0.0002137492     4     2     6     1
 0.0571620818     4     2     6     4
 -0.0112700564     4     2     6     6
 -0.0105915365     4     3     3     1
 -0.0019038219     4     3     3     2
 -0.5615588374     4     3     3     4
 -0.0291266258     4     3     3     6
 0.9496373568     4     4     1     1
 0.0359545949     4     4     1     2
 -0.0089277026     4     4     1     6
 0.0359545949     4     4     2     1
 0.5508232164     4     4     2     2
 -0.0571620818     4     4     2     6
 0.5615588374     4     4     3     3
 0.6064184920     4     4     5     5
 -0.0089277026     4     4     6     1
 -0.0571620818     4     4     6     2
 0.2929166945     4     4     6     6
 -0.0137350204     4     5     5     1
 -0.0044937913     4     5     5     2
 -0.6064184920     4     5     5     4
 -0.0343923263     4     5     5     6
 0.0616959812     4     6     1     1
 0.0066860407     4     6     1     2
 0.0089277026     4     6     1     4
 0.0062411256     4     6     2     1
 0.0252894289     4     6     2     2
 0.0571620818     4     6     2     4
 0.0291266258     4     6     3     3
 0.0343923263     4     6     5     5
 -0.0039874803     4     6     6     1
 0.0112700564     4     6     6     2
 -0.2929166945     4     6     6     4
 -0.9969865945     5     1     1     5
 -0.0408660094     5     1     2     5
 -0.0137350204     5     1     4     5
 0.0086625888     5     1     6     5
 -0.0408660094     5     2     1     5
 -0.5783297848     5     2     2     5
 -0.0044937913     5     2     4     5
 0.0560175153     5     2     6     5
 -0.5852787909     5     3     3     5
 -0.0137350204     5     4     1     5
 -0.0044937913     5     4     2     5
 -0.6064184920     5     4     4     5
 -0.0343923263     5     4     6     5
 0.9969865945     5     5     1     1
 0.0408660094     5     5     1     2
 0.0137350204     5     5     1     4
 -0.0086625888     5     5     1     6
 0.0408660094     5     5     2     1
 0.5783297848     5     5     2     2
 0.0044937913     5     5     2     4
 -0.0560175153     5     5     2     6
 0.5852787909     5     5     3     3
 0.0137350204     5     5     4     1
 0.0044937913     5     5     4     2
 0.6064184920     5     5     4     4
 0.0343923263     5     5     4     6
 -0.0086625888     5     5     6     1
 -0.0560175153     5     5     6     2
 0.0343923263     5     5     6     4
 0.3020952254     5     5     6     6
 0.0086625888     5     6     1     5
 0.0560175153     5     6     2     5
 -0.0343923263     5     6     4     5
 -0.3020952254     5     6     6     5
 0.1249047762     6     1     1     2
 -0.0616959812     6     1     1     4
 -0.3485677301     6     1     1     6
 0.0010691453     6     1     2     2
 -0.0066860407     6     1     2     4
 -0.0018443335     6     1     2     6
 -0.0044990562     6     1     3     3
 0.0002137492     6     1     4     2
 -0.0089277026     6     1     4     4
 -0.0039874803     6     1     4     6
 -0.0086625888     6     1     5     5
 -0.1249047762     6     2     1     1
 -0.0062411256     6     2     1     4
 -0.0018443335     6     2     1     6
 -0.0010691453     6     2     2     1
 -0.0252894289     6     2     2     4
 -0.3035853689     6     2     2     6
 -0.0583892786     6     2     3     3
 -0.0002137492     6     2     4     1
 -0.0571620818     6     2     4     4
 0.0112700564     6     2     4     6
 -0.0560175153     6     2     5     5
 0.0044990562     6     3     3     1
 0.0583892786     6     3     3     2
 -0.0291266258     6     3     3     4
 -0.3064933000     6     3     3     6
 0.0616959812     6     4     1     1
 0.0062411256     6     4     1     2
 -0.0039874803     6     4     1     6
 0.0066860407     6     4     2     1
 0.0252894289     6     4     2     2
 0.0112700564     6     4     2     6
 0.0291266258     6     4     3     3
 0.0089277026     6     4     4     1
 0.0571620818     6     4     4     2
 -0.2929166945     6     4     4     6
 0.0343923263     6     4     5     5
 0.0086625888     6     5     5     1
 0.0560175153     6     5     5     2
 -0.0343923263     6     5     5     4
 -0.3020952254     6     5     5     6
 0.3485677301     6     6     1     1
 0.0018443335     6     6     1     2
 0.0039874803     6     6     1     4
 0.0018443335     6     6     2     1
 0.3035853689     6     6     2     2
 -0.0112700564     6     6     2     4
 0.3064933000     6     6     3     3
 0.0039874803     6     6     4     1
 -0.0112700564     6     6     4     2
 0.2929166945     6     6     4     4
 0.3020952254     6     6     5     5
0.0 0 0 0 0
 0.9838885541     1     1     2     2
 0.0676918207     1     1     2     4
 -0.1249047762     1     1     2     6
 0.8671653299     1     1     3     3
 0.0676918207     1     1     4     2
 0.9496373568     1     1     4     4
 0.0616959812     1     1     4     6
 0.9969865945     1     1     5     5
 -0.1249047762     1     1     6     2
 0.0616959812     1     1     6     4
 0.3485677301     1     1     6     6
 -0.9838885541     1     2     2     1
 -0.0070668319     1     2     2     4
 -0.0010691453     1     2     2     6
 0.0309664652     1     2     3     3
 -0.0676918207     1     2     4     1
 0.0359545949     1     2     4     4
 0.0066860407     1     2     4     6
 0.0408660094     1     2     5     5
 0.1249047762     1     2     6     1
 0.0062411256     1     2     6     4
 0.0018443335     1     2     6     6
 -0.8671653299     1     3     3     1
 -0.0309664652     1     3     3     2
 -0.0105915365     1     3     3     4
 0.0044990562     1     3     3     6
 -0.0676918207     1     4     2     1
 0.0070668319     1     4     2     2
 -0.0002137492     1     4     2     6
 0.0105915365     1     4     3     3
 -0.9496373568     1     4     4     1
 -0.0359545949     1     4     4     2
 0.0089277026     1     4     4     6
 0.0137350204     1     4     5     5
 -0.0616959812     1     4     6     1
 -0.0062411256     1     4     6     2
 0.0039874803     1     4     6     6
 -0.9969865945     1     5     5     1
 -0.0408660094     1     5     5     2
 -0.0137350204     1     5     5     4
 0.0086625888     1     5     5     6
 0.1249047762     1     6     2     1
 0.0010691453     1     6     2     2
 0.0002137492     1     6     2     4
 -0.0044990562     1     6     3     3
 -0.0616959812     1     6     4     1
 -0.0066860407     1     6     4     2
 -0.0089277026     1     6     4     4
 -0.0086625888     1     6     5     5
 -0.3485677301     1     6     6     1
 -0.0018443335     1     6     6     2
 -0.0039874803     1     6     6     4
 -0.9838885541     2     1     1     2
 -0.0676918207     2     1     1     4
 0.1249047762     2     1     1     6
 0.0309664652     2     1     3     3
 -0.0070668319     2     1     4     2
 0.0359545949     2     1     4     4
 0.0062411256     2     1     4     6
 0.0408660094     2     1     5     5
 -0.0010691453     2     1     6     2
 0.0066860407     2     1     6     4
 0.0018443335     2     1     6     6
 0.9838885541     2     2     1     1
 0.0070668319     2     2     1     4
 0.0010691453     2     2     1     6
 0.5271825390     2     2     3     3
 0.0070668319     2     2     4     1
 0.5508232164     2     2     4     4
 0.0252894289     2     2     4     6
 0.5783297848     2     2     5     5
 0.0010691453     2     2     6     1
 0.0252894289     2     2     6     4
 0.3035853689     2     2     6     6
 -0.0309664652     2     3     3     1
 -0.5271825390     2     3     3     2
 -0.0019038219     2     3     3     4
 0.0583892786     2     3     3     6
 0.0676918207     2     4     1     1
 -0.0070668319     2     4     1     2
 0.0002137492     2     4     1     6
 0.0019038219     2     4     3     3
 -0.0359545949     2     4     4     1
 -0.5508232164     2     4     4     2
 0.0571620818     2     4     4     6
 0.0044937913     2     4     5     5
 -0.0066860407     2     4     6     1
 -0.0252894289     2     4     6     2
 -0.0112700564     2     4     6     6
 -0.0408660094     2     5     5     1
 -0.5783297848     2     5     5     2
 -0.0044937913     2     5     5     4
 0.0560175153     2     5     5     6
 -0.1249047762     2     6     1     1
 -0.0010691453     2     6     1     2
 -0.0002137492     2     6     1     4
 -0.0583892786     2     6     3     3
 -0.0062411256     2     6     4     1
 -0.0252894289     2     6     4     2
 -0.0571620818     2     6     4     4
 -0.0560175153     2     6     5     5
 -0.0018443335     2     6     6     1
 -0.3035853689     2     6     6     2
 0.0112700564     2     6     6     4
 -0.8671653299     3     1     1     3
 -0.0309664652     3     1     2     3
 -0.0105915365     3     1     4     3
 0.0044990562     3     1     6     3
 -0.0309664652     3     2     1     3
 -0.5271825390     3     2     2     3
 -0.0019038219     3     2     4     3
 0.0583892786     3     2     6     3
 0.8671653299     3     3     1     1
 0.0309664652     3     3     1     2
 0.0105915365     3     3     1     4
 -0.0044990562     3     3     1     6
 0.0309664652     3     3     2     1
 0.5271825390     3     3     2     2
 0.0019038219     3     3     2     4
 -0.0583892786     3     3     2     6
 0.0105915365     3     3     4     1
 0.0019038219     3     3     4     2
 0.5615588374     3     3     4     4
 0.0291266258     3     3     4     6
 0.5852787909     3     3     5     5
 -0.0044990562     3     3     6     1
 -0.0583892786     3     3     6     2
 0.0291266258     3     3     6     4
 0.3064933000     3     3     6     6
 -0.0105915365     3     4     1     3
 -0.0019038219     3     4     2     3
 -0.5615588374     3     4     4     3
 -0.0291266258     3     4     6     3
 -0.5852787909     3     5     5     3
 0.0044990562     3     6     1     3
 0.0583892786     3     6     2     3
 -0.0291266258     3     6     4     3
 -0.3064933000     3     6     6     3
 -0.0676918207     4     1     1     2
 -0.9496373568     4     1     1     4
 -0.0616959812     4     1     1     6
 0.0070668319     4     1     2     2
 -0.0359545949     4     1     2     4
 -0.0062411256     4     1     2     6
 0.0105915365     4     1     3     3
 0.0137350204     4     1     5     5
 -0.0002137492     4     1     6     2
 0.0089277026     4     1     6     4
 0.0039874803     4     1     6     6
 0.0676918207     4     2     1     1
 -0.0359545949     4     2     1     4
 -0.0066860407     4     2     1     6
 -0.0070668319     4     2     2     1
 -0.5508232164     4     2     2     4
 -0.0252894289     4     2     2     6
 0.0019038219     4     2     3     3
 0.0044937913     4     2     5     5
 0.0002137492     4     2     6     1
 0.0571620818     4     2     6     4
 -0.0112700564     4     2     6     6
 -0.0105915365     4     3     3     1
 -0.0019038219     4     3     3     2
 -0.5615588374     4     3     3     4
 -0.0291266258     4     3     3     6
 0.9496373568     4     4     1     1
 0.0359545949     4     4     1     2
 -0.0089277026     4     4     1     6
 0.0359545949     4     4     2     1
 0.5508232164     4     4     2     2
 -0.0571620818     4     4     2     6
 0.5615588374     4     4     3     3
 0.6064184920     4     4     5     5
 -0.0089277026     4     4     6     1
 -0.0571620818     4     4     6     2
 0.2929166945     4     4     6     6
 -0.0137350204     4     5     5     1
 -0.0044937913     4     5     5     2
 -0.6064184920     4     5     5     4
 -0.0343923263     4     5     5     6
 0.0616959812     4     6     1     1
 0.0066860407     4     6     1     2
 0.0089277026     4     6     1     4
 0.0062411256     4     6     2     1
 0.0252894289     4     6     2     2
 0.0571620818     4     6     2     4
 0.0291266258     4     6     3     3
 0.0343923263     4     6     5     5
 -0.0039874803     4     6     6     1
 0.0112700564     4     6     6     2
 -0.2929166945     4     6     6     4
 -0.9969865945     5     1     1     5
 -0.0408660094     5     1     2     5
 -0.0137350204     5     1     4     5
 0.0086625888     5     1     6     5
 -0.0408660094     5     2     1     5
 -0.5783297848     5     2     2     5
 -0.0044937913     5     2     4     5
 0.0560175153     5     2     6     5
 -0.5852787909     5     3     3     5
 -0.0137350204     5     4     1     5
 -0.0044937913     5     4     2     5
 -0.6064184920     5     4     4     5
 -0.0343923263     5     4     6     5
 0.9969865945     5     5     1     1
 0.0408660094     5     5     1     2
 0.0137350204     5     5     1     4
 -0.0086625888     5     5     1     6
 0.0408660094     5     5     2     1
 0.5783297848     5     5     2     2
 0.0044937913     5     5     2     4
 -0.0560175153     5     5     2     6
 0.5852787909     5     5     3     3
 0.0137350204     5     5     4     1
 0.0044937913     5     5     4     2
 0.6064184920     5     5     4     4
 0.0343923263     5     5     4     6
 -0.0086625888     5     5     6     1
 -0.0560175153     5     5     6     2
 0.0343923263     5     5     6     4
 0.3020952254     5     5     6     6
 0.0086625888     5     6     1     5
 0.0560175153     5     6     2     5
 -0.0343923263     5     6     4     5
 -0.3020952254     5     6     6     5
 0.1249047762     6     1     1     2
 -0.0616959812     6     1     1     4
 -0.3485677301     6     1     1     6
 0.0010691453     6     1     2     2
 -0.0066860407     6     1     2     4
 -0.0018443335     6     1     2     6
 -0.0044990562     6     1     3     3
 0.0002137492     6     1     4     2
 -0.0089277026     6     1     4     4
 -0.0039874803     6     1     4     6
 -0.0086625888     6     1     5     5
 -0.1249047762     6     2     1     1
 -0.0062411256     6     2     1     4
 -0.0018443335     6     2     1     6
 -0.0010691453     6     2     2     1
 -0.0252894289     6     2     2     4
 -0.3035853689     6     2     2     6
 -0.0583892786     6     2     3     3
 -0.0002137492     6     2     4     1
 -0.0571620818     6     2     4     4
 0.0112700564     6     2     4     6
 -0.0560175153     6     2     5     5
 0.0044990562     6     3     3     1
 0.0583892786     6     3     3     2
 -0.0291266258     6     3     3     4
 -0.3064933000     6     3     3     6
 0.0616959812     6     4     1     1
 0.0062411256     6     4     1     2
 -0.0039874803     6     4     1     6
 0.0066860407     6     4     2     1
 0.0252894289     6     4     2     2
 0.0112700564     6     4     2     6
 0.0291266258     6     4     3     3
 0.0089277026     6     4     4     1
 0.0571620818     6     4     4     2
 -0.2929166945     6     4     4     6
 0.0343923263     6     4     5     5
 0.0086625888     6     5     5     1
 0.0560175153     6     5     5     2
 -0.0343923263     6     5     5     4
 -0.3020952254     6     5     5     6
 0.3485677301     6     6     1     1
 0.0018443335     6     6     1     2
 0.0039874803     6     6     1     4
 0.0018443335     6     6     2     1
 0.3035853689     6     6     2     2
 -0.0112700564     6     6     2     4
 0.3064933000     6     6     3     3
 0.0039874803     6     6     4     1
 -0.0112700564     6     6     4     2
 0.2929166945     6     6     4     4
 0.3020952254     6     6     5     5
0.0 0 0 0 0
 4.7295560913     1     1     1     1
 0.4290837652     1     1     1     2
 0.1371171521     1     1     1     4
 -0.1253454851     1     1     1     6
 0.4290837652     1     1     2     1
 1.0474929849     1     1     2     2
 0.0838841097     1     1     2     4
 -0.1464178889     1     1     2     6
 0.8881178163     1     1     3     3
 0.1371171521     1     1     4     1
 0.0838841097     1     1     4     2
 0.9805007275     1     1     4     4
 0.0621415406     1     1     4     6
 1.0276504068     1     1     5     5
 -0.1253454851     1     1     6     1
 -0.1464178889     1     1     6     2
 0.0621415406     1     1     6     4
 0.3558722599     1     1     6     6
 0.4290837652     1     2     1     1
 0.0593301365     1     2     1     2
 0.0161153377     1     2     1     4
 -0.0202360876     1     2     1     6
 0.0636044308     1     2     2     1
 0.0147084438     1     2     2     2
 0.0074824034     1     2     2     4
 -0.0023478439     1     2     2     6
 0.0074258742     1     2     3     3
 0.0161922890     1     2     4     1
 0.0077814800     1     2     4     2
 0.0134162597     1     2     4     4
 -0.0009764254     1     2     4     6
 0.0121552161     1     2     5     5
 -0.0215131127     1     2     6     1
 -0.0010807887     1     2     6     2
 -0.0012139533     1     2     6     4
 0.0012029317     1     2     6     6
 0.0165000475     1     3     1     3
 -0.0225640192     1     3     2     3
 0.0209524864     1     3     3     1
 -0.0235405910     1     3     3     2
 -0.0030778391     1     3     3     4
 0.0039935285     1     3     3     6
 -0.0026063943     1     3     4     3
 0.0038672011     1     3     6     3
 0.1371171521     1     4     1     1
 0.0161153377     1     4     1     2
 0.0260938002     1     4     1     4
 0.0000481544     1     4     1     6
 0.0161922890     1     4     2     1
 0.0145492353     1     4     2     2
 -0.0217239937     1     4     2     4
 -0.0075985988     1     4     2     6
 0.0075136974     1     4     3     3
 0.0308633707     1     4     4     1
 -0.0225383352     1     4     4     2
 -0.0080972149     1     4     4     4
 0.0030384933     1     4     4     6
 0.0047948605     1     4     5     5
 0.0004455594     1     4     6     1
 -0.0074550789     1     4     6     2
 0.0026233987     1     4     6     4
 0.0048989147     1     4     6     6
 0.0255939328     1     5     1     5
 -0.0282834427     1     5     2     5
 -0.0085849677     1     5     4     5
 0.0306638123     1     5     5     1
 -0.0287107933     1     5     5     2
 -0.0089401599     1     5     5     4
 0.0065155900     1     5     5     6
 0.0058734551     1     5     6     5
 -0.1253454851     1     6     1     1
 -0.0202360876     1     6     1     2
 0.0000481544     1     6     1     4
 0.0079199889     1     6     1     6
 -0.0215131127     1     6     2     1
 -0.0012786986     1     6     2     2
 -0.0073848496     1     6     2     4
 -0.0011607393     1     6     2     6
 -0.0005055277     1     6     3     3
 0.0004455594     1     6     4     1
 -0.0076624661     1     6     4     2
 -0.0058892093     1     6     4     4
 0.0014343940     1     6     4     6
 -0.0021469988     1     6     5     5
 0.0073045298     1     6     6     1
 -0.0006414018     1     6     6     2
 0.0009114344     1     6     6     4
 0.0005700794     1     6     6     6
 0.4290837652     2     1     1     1
 0.0636044308     2     1     1     2
 0.0161922890     2     1     1     4
 -0.0215131127     2     1     1     6
 0.0593301365     2     1     2     1
 0.0147084438     2     1     2     2
 0.0077814800     2     1     2     4
 -0.0010807887     2     1     2     6
 0.0074258742     2     1     3     3
 0.0161153377     2     1     4     1
 0.0074824034     2     1     4     2
 0.0134162597     2     1     4     4
 -0.0012139533     2     1     4     6
 0.0121552161     2     1     5     5
 -0.0202360876     2     1     6     1
 -0.0023478439     2     1     6     2
 -0.0009764254     2     1     6     4
 0.0012029317     2     1     6     6
 1.0474929849     2     2     1     1
 0.0147084438     2     2     1     2
 0.0145492353     2     2     1     4
 -0.0012786986     2     2     1     6
 0.0147084438     2     2     2     1
 0.7441540872     2     2     2     2
 -0.0170379355     2     2     2     4
 -0.0841640055     2     2     2     6
 0.6733108782     2     2     3     3
 0.0145492353     2     2     4     1
 -0.0170379355     2     2     4     2
 0.6691605942     2     2     4     4
 0.0403736150     2     2     4     6
 0.6991361020     2     2     5     5
 -0.0012786986     2     2     6     1
 -0.0841640055     2     2     6     2
 0.0403736150     2     2     6     4
 0.3271094903     2     2     6     6
 -0.0225640192     2     3     1     3
 0.1406148428     2     3     2     3
 -0.0235405910     2     3     3     1
 0.1461283392     2     3     3     2
 -0.0137944959     2     3     3     4
 -0.0040176323     2     3     3     6
 -0.0145498169     2     3     4     3
 -0.0036615862     2     3     6     3
 0.0838841097     2     4     1     1
 0.0074824034     2     4     1     2
 -0.0217239937     2     4     1     4
 -0.0073848496     2     4     1     6
 0.0077814800     2     4     2     1
 -0.0170379355     2     4     2     2
 0.1129263836     2     4     2     4
 0.0147656862     2     4     2     6
 -0.0118906740     2     4     3     3
 -0.0225383352     2     4     4     1
 0.1183373778     2     4     4     2
 0.0630821260     2     4     4     4
 -0.0002243278     2     4     4     6
 0.0319201619     2     4     5     5
 -0.0076624661     2     4     6     1
 0.0150841861     2     4     6     2
 -0.0003827066     2     4     6     4
 -0.0237500185     2     4     6     6
 -0.0282834427     2     5     1     5
 0.1163042142     2     5     2     5
 0.0275649093     2     5     4     5
 -0.0287107933     2     5     5     1
 0.1208063172     2     5     5     2
 0.0274263706     2     5     5     4
 -0.0183621276     2     5     5     6
 -0.0174135895     2     5     6     5
 -0.1464178889     2     6     1     1
 -0.0023478439     2     6     1     2
 -0.0075985988     2     6     1     4
 -0.0011607393     2     6     1     6
 -0.0010807887     2     6     2     1
 -0.0841640055     2     6     2     2
 0.0147656862     2     6     2     4
 0.0297518017     2     6     2     6
 -0.0624069109     2     6     3     3
 -0.0074550789     2     6     4     1
 0.0150841861     2     6     4     2
 -0.0573864096     2     6     4     4
 -0.0163668292     2     6     4     6
 -0.0743796429     2     6     5     5
 -0.0006414018     2     6     6     1
 0.0235241214     2     6     6     2
 -0.0124799621     2     6     6     4
 -0.0107644913     2     6     6     6
 0.0209524864     3     1     1     3
 -0.0235405910     3     1     2     3
 0.0165000475     3     1     3     1
 -0.0225640192     3     1     3     2
 -0.0026063943     3     1     3     4
 0.0038672011     3     1     3     6
 -0.0030778391     3     1     4     3
 0.0039935285     3     1     6     3
 -0.0235405910     3     2     1     3
 0.1461283392     3     2     2     3
 -0.0225640192     3     2     3     1
 0.1406148428     3     2     3     2
 -0.0145498169     3     2     3     4
 -0.0036615862     3     2     3     6
 -0.0137944959     3     2     4     3
 -0.0040176323     3     2     6     3
 0.8881178163     3     3     1     1
 0.0074258742     3     3     1     2
 0.0075136974     3     3     1     4
 -0.0005055277     3     3     1     6
 0.0074258742     3     3     2     1
 0.6733108782     3     3     2     2
 -0.0118906740     3     3     2     4
 -0.0624069109     3     3     2     6
 0.6472642082     3     3     3     3
 0.0075136974     3     3     4     1
 -0.0118906740     3     3     4     2
 0.5976635057     3     3     4     4
 0.0278519567     3     3     4     6
 0.6131433029     3     3     5     5
 -0.0005055277     3     3     6     1
 -0.0624069109     3     3     6     2
 0.0278519567     3     3     6     4
 0.3208154280     3     3     6     6
 -0.0030778391     3     4     1     3
 -0.0137944959     3     4     2     3
 -0.0026063943     3     4     3     1
 -0.0145498169     3     4     3     2
 0.0289975773     3     4     3     4
 -0.0019962118     3     4     3     6
 0.0361046683     3     4     4     3
 -0.0012746691     3     4     6     3
 0.0210767011     3     5     3     5
 0.0278645120     3     5     5     3
 0.0039935285     3     6     1     3
 -0.0040176323     3     6     2     3
 0.0038672011     3     6     3     1
 -0.0036615862     3     6     3     2
 -0.0019962118     3     6     3     4