&FCI NORB= 10,NELEC= 10,MS2=0,
 ORBSYM=1,1,1,1,1,1,1,1,1,1
 ISYM=1,
&END
 0.9840454313     1     1     2     2
 0.0692491520     1     1     2     4
 -0.1333584197     1     1     2     6
 -0.1077197620     1     1     2     9
 0.0364755882     1     1     2    10
 0.8687299676     1     1     3     3
 0.1597156309     1     1     3     7
 0.0945525102     1     1     3     8
 0.0692491520     1     1     4     2
 0.9529661147     1     1     4     4
 0.0697558386     1     1     4     6
 0.0563155041     1     1     4     9
 -0.2411730330     1     1     4    10
 0.9980994817     1     1     5     5
 -0.1333584197     1     1     6     2
 0.0697558386     1     1     6     4
 0.3477894004     1     1     6     6
 0.1071938275     1     1     6     9
 -0.0898941851     1     1     6    10
 0.1597156309     1     1     7     3
 0.3252939738     1     1     7     7
 0.0988050436     1     1     7     8
 0.0945525102     1     1     8     3
 0.0988050436     1     1     8     7
 0.4543137811     1     1     8     8
 -0.1077197620     1     1     9     2
 0.0563155041     1     1     9     4
 0.1071938275     1     1     9     6
 0.4543886586     1     1     9     9
 -0.0560498530     1     1     9    10
 0.0364755882     1     1    10     2
 -0.2411730330     1     1    10     4
 -0.0898941851     1     1    10     6
 -0.0560498530     1     1    10     9
 0.5357659407     1     1    10    10
 -0.9840454313     1     2     2     1
 -0.0069267147     1     2     2     4
 -0.0011671575     1     2     2     6
 -0.0016560756     1     2     2     9
 0.0055583148     1     2     2    10
 0.0307683952     1     2     3     3
 0.0125254963     1     2     3     7
 0.0112809972     1     2     3     8
 -0.0692491520     1     2     4     1
 0.0358913446     1     2     4     4
 0.0069301932     1     2     4     6
 0.0076972990     1     2     4     9
 -0.0215677636     1     2     4    10
 0.0406953042     1     2     5     5
 0.1333584197     1     2     6     1
 0.0066621974     1     2     6     4
 0.0018734721     1     2     6     6
 0.0022507030     1     2     6     9
 -0.0052194514     1     2     6    10
 0.0090955619     1     2     7     3
 0.0048952020     1     2     7     7
 0.0043229304     1     2     7     8
 0.0074080045     1     2     8     3
 0.0038441332     1     2     8     7
 0.0033724029     1     2     8     8
 0.1077197620     1     2     9     1
 0.0066473837     1     2     9     4
 0.0019583208     1     2     9     6
 0.0017447492     1     2     9     9
 -0.0053221299     1     2     9    10
 -0.0364755882     1     2    10     1
 -0.0159761059     1     2    10     4
 -0.0037506884     1     2    10     6
 -0.0044070857     1     2    10     9
 0.0134759240     1     2    10    10
 0.0026379481     1     3     2     7
 0.0032691672     1     3     2     8
 -0.8687299676     1     3     3     1
 -0.0307683952     1     3     3     2
 -0.0105942633     1     3     3     4
 0.0045377966     1     3     3     6
 0.0002218558     1     3     3     9
 0.0025859964     1     3     3    10
 -0.0012973164     1     3     4     7
 -0.0050069767     1     3     4     8
 0.0021349990     1     3     6     7
 -0.0004336524     1     3     6     8
 -0.1597156309     1     3     7     1
 -0.0090955619     1     3     7     2
 -0.0032851333     1     3     7     4
 0.0044396019     1     3     7     6
 0.0024277543     1     3     7     9
 -0.0001797973     1     3     7    10
 -0.0945525102     1     3     8     1
 -0.0074080045     1     3     8     2
 -0.0023993428     1     3     8     4
 0.0026762613     1     3     8     6
 0.0045623196     1     3     8     9
 -0.0038560123     1     3     8    10
 0.0019733721     1     3     9     7
 0.0028935204     1     3     9     8
 0.0002017989     1     3    10     7
 -0.0004987087     1     3    10     8
 -0.0692491520     1     4     2     1
 0.0069267147     1     4     2     2
 -0.0002772438     1     4     2     6
 0.0005603466     1     4     2     9
 -0.0042360987     1     4     2    10
 0.0105942633     1     4     3     3
 0.0021602222     1     4     3     7
 -0.0024744284     1     4     3     8
 -0.9529661147     1     4     4     1
 -0.0358913446     1     4     4     2
 0.0090861554     1     4     4     6
 0.0095648651     1     4     4     9
 -0.0063292696     1     4     4    10
 0.0137934539     1     4     5     5
 -0.0697558386     1     4     6     1
 -0.0066621974     1     4     6     2
 0.0040615801     1     4     6     6
 0.0028356610     1     4     6     9
 -0.0038069850     1     4     6    10
 0.0032851333     1     4     7     3
 0.0027575830     1     4     7     7
 0.0011595747     1     4     7     8
 0.0023993428     1     4     8     3
 0.0028798343     1     4     8     7
 0.0028077475     1     4     8     8
 -0.0563155041     1     4     9     1
 -0.0066473837     1     4     9     2
 0.0029512063     1     4     9     6
 0.0059811887     1     4     9     9
 -0.0020185164     1     4     9    10
 0.2411730330     1     4    10     1
 0.0159761059     1     4    10     2
 -0.0081368159     1     4    10     6
 -0.0065311354     1     4    10     9
 0.0029472937     1     4    10    10
 -0.9980994817     1     5     5     1
 -0.0406953042     1     5     5     2
 -0.0137934539     1     5     5     4
 0.0089166105     1     5     5     6
 0.0118654569     1     5     5     9
 0.0030147586     1     5     5    10
 0.1333584197     1     6     2     1
 0.0011671575     1     6     2     2
 0.0002772438     1     6     2     4
 0.0003125643     1     6     2     9
 -0.0014507661     1     6     2    10
 -0.0045377966     1     6     3     3
 -0.0022512521     1     6     3     7
 -0.0030673559     1     6     3     8
 -0.0697558386     1     6     4     1
 -0.0069301932     1     6     4     2
 -0.0090861554     1     6     4     4
 -0.0001458197     1     6     4     9
 0.0042505508     1     6     4    10
 -0.0089166105     1     6     5     5
 -0.3477894004     1     6     6     1
 -0.0018734721     1     6     6     2
 -0.0040615801     1     6     6     4
 -0.0003805663     1     6     6     9
 0.0018884207     1     6     6    10
 -0.0044396019     1     6     7     3
 -0.0017733960     1     6     7     7
 -0.0017532200     1     6     7     8
 -0.0026762613     1     6     8     3
 -0.0008437125     1     6     8     7
 -0.0005811459     1     6     8     8
 -0.1071938275     1     6     9     1
 -0.0019583208     1     6     9     2
 -0.0029512063     1     6     9     4
 0.0007173640     1     6     9     9
 0.0016034432     1     6     9    10
 0.0898941851     1     6    10     1
 0.0037506884     1     6    10     2
 0.0081368159     1     6    10     4
 0.0005881610     1     6    10     9
 -0.0051265361     1     6    10    10
 -0.0026379481     1     7     2     3
 0.0004648963     1     7     2     8
 -0.1597156309     1     7     3     1
 -0.0125254963     1     7     3     2
 -0.0021602222     1     7     3     4
 0.0022512521     1     7     3     6
 0.0004317211     1     7     3     9
 -0.0002696655     1     7     3    10
 0.0012973164     1     7     4     3
 -0.0017296136     1     7     4     8
 -0.0021349990     1     7     6     3
 -0.0009114775     1     7     6     8
 -0.3252939738     1     7     7     1
 -0.0048952020     1     7     7     2
 -0.0027575830     1     7     7     4
 0.0017733960     1     7     7     6
 0.0009230929     1     7     7     9
 0.0006107272     1     7     7    10
 -0.0988050436     1     7     8     1
 -0.0038441332     1     7     8     2
 -0.0028798343     1     7     8     4
 0.0008437125     1     7     8     6
 0.0016084268     1     7     8     9
 -0.0005484209     1     7     8    10
 -0.0019733721     1     7     9     3
 0.0005405514     1     7     9     8
 -0.0002017989     1     7    10     3
 -0.0002969677     1     7    10     8
 -0.0032691672     1     8     2     3
 -0.0004648963     1     8     2     7
 -0.0945525102     1     8     3     1
 -0.0112809972     1     8     3     2
 0.0024744284     1     8     3     4
 0.0030673559     1     8     3     6
 0.0016710108     1     8     3     9
 -0.0031785915     1     8     3    10
 0.0050069767     1     8     4     3
 0.0017296136     1     8     4     7
 0.0004336524     1     8     6     3
 0.0009114775     1     8     6     7
 -0.0988050436     1     8     7     1
 -0.0043229304     1     8     7     2
 -0.0011595747     1     8     7     4
 0.0017532200     1     8     7     6
 0.0010656432     1     8     7     9
 -0.0002562612     1     8     7    10
 -0.4543137811     1     8     8     1
 -0.0033724029     1     8     8     2
 -0.0028077475     1     8     8     4
 0.0005811459     1     8     8     6
 0.0012231196     1     8     8     9
 -0.0002062014     1     8     8    10
 -0.0028935204     1     8     9     3
 -0.0005405514     1     8     9     7
 0.0004987087     1     8    10     3
 0.0002969677     1     8    10     7
 0.1077197620     1     9     2     1
 0.0016560756     1     9     2     2
 -0.0005603466     1     9     2     4
 -0.0003125643     1     9     2     6
 -0.0009305119     1     9     2    10
 -0.0002218558     1     9     3     3
 -0.0004317211     1     9     3     7
 -0.0016710108     1     9     3     8
 -0.0563155041     1     9     4     1
 -0.0076972990     1     9     4     2
 -0.0095648651     1     9     4     4
 0.0001458197     1     9     4     6
 0.0044502461     1     9     4    10
 -0.0118654569     1     9     5     5
 -0.1071938275     1     9     6     1
 -0.0022507030     1     9     6     2
 -0.0028356610     1     9     6     4
 0.0003805663     1     9     6     6
 0.0010168796     1     9     6    10
 -0.0024277543     1     9     7     3
 -0.0009230929     1     9     7     7
 -0.0010656432     1     9     7     8
 -0.0045623196     1     9     8     3
 -0.0016084268     1     9     8     7
 -0.0012231196     1     9     8     8
 -0.4543886586     1     9     9     1
 -0.0017447492     1     9     9     2
 -0.0059811887     1     9     9     4
 -0.0007173640     1     9     9     6
 0.0035635906     1     9     9    10
 0.0560498530     1     9    10     1
 0.0044070857     1     9    10     2
 0.0065311354     1     9    10     4
 -0.0005881610     1     9    10     6
 -0.0039919135     1     9    10    10
 -0.0364755882     1    10     2     1
 -0.0055583148     1    10     2     2
 0.0042360987     1    10     2     4
 0.0014507661     1    10     2     6
 0.0009305119     1    10     2     9
 -0.0025859964     1    10     3     3
 0.0002696655     1    10     3     7
 0.0031785915     1    10     3     8
 0.2411730330     1    10     4     1
 0.0215677636     1    10     4     2
 0.0063292696     1    10     4     4
 -0.0042505508     1    10     4     6
 -0.0044502461     1    10     4     9
 -0.0030147586     1    10     5     5
 0.0898941851     1    10     6     1
 0.0052194514     1    10     6     2
 0.0038069850     1    10     6     4
 -0.0018884207     1    10     6     6
 -0.0010168796     1    10     6     9
 0.0001797973     1    10     7     3
 -0.0006107272     1    10     7     7
 0.0002562612     1    10     7     8
 0.0038560123     1    10     8     3
 0.0005484209     1    10     8     7
 0.0002062014     1    10     8     8
 0.0560498530     1    10     9     1
 0.0053221299     1    10     9     2
 0.0020185164     1    10     9     4
 -0.0016034432     1    10     9     6
 -0.0035635906     1    10     9     9
 -0.5357659407     1    10    10     1
 -0.0134759240     1    10    10     2
 -0.0029472937     1    10    10     4
 0.0051265361     1    10    10     6
 0.0039919135     1    10    10     9
 -0.9840454313     2     1     1     2
 -0.0692491520     2     1     1     4
 0.1333584197     2     1     1     6
 0.1077197620     2     1     1     9
 -0.0364755882     2     1     1    10
 0.0307683952     2     1     3     3
 0.0090955619     2     1     3     7
 0.0074080045     2     1     3     8
 -0.0069267147     2     1     4     2
 0.0358913446     2     1     4     4
 0.0066621974     2     1     4     6
 0.0066473837     2     1     4     9
 -0.0159761059     2     1     4    10
 0.0406953042     2     1     5     5
 -0.0011671575     2     1     6     2
 0.0069301932     2     1     6     4
 0.0018734721     2     1     6     6
 0.0019583208     2     1     6     9
 -0.0037506884     2     1     6    10
 0.0125254963     2     1     7     3
 0.0048952020     2     1     7     7
 0.0038441332     2     1     7     8
 0.0112809972     2     1     8     3
 0.0043229304     2     1     8     7
 0.0033724029     2     1     8     8
 -0.0016560756     2     1     9     2
 0.0076972990     2     1     9     4
 0.0022507030     2     1     9     6
 0.0017447492     2     1     9     9
 -0.0044070857     2     1     9    10
 0.0055583148     2     1    10     2
 -0.0215677636     2     1    10     4
 -0.0052194514     2     1    10     6
 -0.0053221299     2     1    10     9
 0.0134759240     2     1    10    10
 0.9840454313     2     2     1     1
 0.0069267147     2     2     1     4
 0.0011671575     2     2     1     6
 0.0016560756     2     2     1     9
 -0.0055583148     2     2     1    10
 0.5275542166     2     2     3     3
 0.0647166911     2     2     3     7
 0.0185804808     2     2     3     8
 0.0069267147     2     2     4     1
 0.5515566401     2     2     4     4
 0.0301411881     2     2     4     6
 0.0182338953     2     2     4     9
 -0.0904202251     2     2     4    10
 0.5779286985     2     2     5     5
 0.0011671575     2     2     6     1
 0.0301411881     2     2     6     4
 0.3019628145     2     2     6     6
 0.0584598442     2     2     6     9
 -0.0526815450     2     2     6    10
 0.0647166911     2     2     7     3
 0.2841478490     2     2     7     7
 0.0606699533     2     2     7     8
 0.0185804808     2     2     8     3
 0.0606699533     2     2     8     7
 0.4059259345     2     2     8     8
 0.0016560756     2     2     9     1
 0.0182338953     2     2     9     4
 0.0584598442     2     2     9     6
 0.4073207978     2     2     9     9
 -0.0147393324     2     2     9    10
 -0.0055583148     2     2    10     1
 -0.0904202251     2     2    10     4
 -0.0526815450     2     2    10     6
 -0.0147393324     2     2    10     9
 0.4055457572     2     2    10    10
 -0.0026379481     2     3     1     7
 -0.0032691672     2     3     1     8
 -0.0307683952     2     3     3     1
 -0.5275542166     2     3     3     2
 -0.0024775861     2     3     3     4
 0.0623528936     2     3     3     6
 0.0683893328     2     3     3     9
 -0.0152887316     2     3     3    10
 0.0105079553     2     3     4     7
 0.0333593512     2     3     4     8
 -0.0339648592     2     3     6     7
 0.0001487887     2     3     6     8
 -0.0125254963     2     3     7     1
 -0.0647166911     2     3     7     2
 0.0012965316     2     3     7     4
 -0.0203842096     2     3     7     6
 -0.0014059699     2     3     7     9
 -0.0001670992     2     3     7    10
 -0.0112809972     2     3     8     1
 -0.0185804808     2     3     8     2
 0.0061457582     2     3     8     4
 0.0026767986     2     3     8     6
 -0.0284730257     2     3     8     9
 0.0265366928     2     3     8    10
 -0.0161054466     2     3     9     7
 -0.0292401375     2     3     9     8
 0.0032833955     2     3    10     7
 0.0233574320     2     3    10     8
 0.0692491520     2     4     1     1
 -0.0069267147     2     4     1     2
 0.0002772438     2     4     1     6
 -0.0005603466     2     4     1     9
 0.0042360987     2     4     1    10
 0.0024775861     2     4     3     3
 0.0092848121     2     4     3     7
 0.0275155982     2     4     3     8
 -0.0358913446     2     4     4     1
 -0.5515566401     2     4     4     2
 0.0610457910     2     4     4     6
 0.0373926175     2     4     4     9
 -0.0217273079     2     4     4    10
 0.0053274726     2     4     5     5
 -0.0069301932     2     4     6     1
 -0.0301411881     2     4     6     2
 -0.0101886726     2     4     6     6
 0.0035090474     2     4     6     9
 0.0215550950     2     4     6    10
 -0.0012965316     2     4     7     3
 -0.0124990628     2     4     7     7
 -0.0024309629     2     4     7     8
 -0.0061457582     2     4     8     3
 -0.0083085549     2     4     8     7
 -0.0052445471     2     4     8     8
 -0.0076972990     2     4     9     1
 -0.0182338953     2     4     9     2
 0.0031706380     2     4     9     6
 -0.0256714067     2     4     9     9
 0.0054386646     2     4     9    10
 0.0215677636     2     4    10     1
 0.0904202251     2     4    10     2
 0.0050750543     2     4    10     6
 -0.0081568832     2     4    10     9
 0.0210580474     2     4    10    10
 -0.0406953042     2     5     5     1
 -0.5779286985     2     5     5     2
 -0.0053274726     2     5     5     4
 0.0603843345     2     5     5     6
 0.0225161835     2     5     5     9
 -0.0249753238     2     5     5    10
 -0.1333584197     2     6     1     1
 -0.0011671575     2     6     1     2
 -0.0002772438     2     6     1     4
 -0.0003125643     2     6     1     9
 0.0014507661     2     6     1    10
 -0.0623528936     2     6     3     3
 -0.0125510954     2     6     3     7
 -0.0017702663     2     6     3     8
 -0.0066621974     2     6     4     1
 -0.0301411881     2     6     4     2
 -0.0610457910     2     6     4     4
 0.0001122242     2     6     4     9
 0.0150929764     2     6     4    10
 -0.0603843345     2     6     5     5
 -0.0018734721     2     6     6     1
 -0.3019628145     2     6     6     2
 0.0101886726     2     6     6     4
 -0.0053631272     2     6     6     9
 0.0067254547     2     6     6    10
 0.0203842096     2     6     7     3
 -0.0080541196     2     6     7     7
 -0.0128811356     2     6     7     8
 -0.0026767986     2     6     8     3
 -0.0072567574     2     6     8     7
 -0.0253410463     2     6     8     8
 -0.0022507030     2     6     9     1
 -0.0584598442     2     6     9     2
 -0.0031706380     2     6     9     4
 -0.0204652555     2     6     9     9
 -0.0007148694     2     6     9    10
 0.0052194514     2     6    10     1
 0.0526815450     2     6    10     2
 -0.0050750543     2     6    10     4
 -0.0019384941     2     6    10     9
 -0.0220211342     2     6    10    10
 0.0026379481     2     7     1     3
 -0.0004648963     2     7     1     8
 -0.0090955619     2     7     3     1
 -0.0647166911     2     7     3     2
 -0.0092848121     2     7     3     4
 0.0125510954     2     7     3     6
 0.0130706946     2     7     3     9
 -0.0031877068     2     7     3    10
 -0.0105079553     2     7     4     3
 0.0054221622     2     7     4     8
 0.0339648592     2     7     6     3
 -0.0056439321     2     7     6     8
 -0.0048952020     2     7     7     1
 -0.2841478490     2     7     7     2
 0.0124990628     2     7     7     4
 0.0080541196     2     7     7     6
 -0.0015192016     2     7     7     9
 -0.0002406356     2     7     7    10
 -0.0043229304     2     7     8     1
 -0.0606699533     2     7     8     2
 0.0083085549     2     7     8     4
 0.0072567574     2     7     8     6
 0.0021942466     2     7     8     9
 0.0000224056     2     7     8    10
 0.0161054466     2     7     9     3
 -0.0039088412     2     7     9     8
 -0.0032833955     2     7    10     3
 0.0039645230     2     7    10     8
 0.0032691672     2     8     1     3
 0.0004648963     2     8     1     7
 -0.0074080045     2     8     3     1
 -0.0185804808     2     8     3     2
 -0.0275155982     2     8     3     4
 0.0017702663     2     8     3     6
 -0.0002895032     2     8     3     9
 0.0026530661     2     8     3    10
 -0.0333593512     2     8     4     3
 -0.0054221622     2     8     4     7
 -0.0001487887     2     8     6     3
 0.0056439321     2     8     6     7
 -0.0038441332     2     8     7     1
 -0.0606699533     2     8     7     2
 0.0024309629     2     8     7     4
 0.0128811356     2     8     7     6
 0.0060562931     2     8     7     9
 -0.0040837005     2     8     7    10
 -0.0033724029     2     8     8     1
 -0.4059259345     2     8     8     2
 0.0052445471     2     8     8     4
 0.0253410463     2     8     8     6
 0.0121666434     2     8     8     9
 -0.0073877623     2     8     8    10
 0.0292401375     2     8     9     3
 0.0039088412     2     8     9     7
 -0.0233574320     2     8    10     3
 -0.0039645230     2     8    10     7
 -0.1077197620     2     9     1     1
 -0.0016560756     2     9     1     2
 0.0005603466     2     9     1     4
 0.0003125643     2     9     1     6
 0.0009305119     2     9     1    10
 -0.0683893328     2     9     3     3
 -0.0130706946     2     9     3     7
 0.0002895032     2     9     3     8
 -0.0066473837     2     9     4     1
 -0.0182338953     2     9     4     2
 -0.0373926175     2     9     4     4
 -0.0001122242     2     9     4     6
 0.0118079119     2     9     4    10
 -0.0225161835     2     9     5     5
 -0.0019583208     2     9     6     1
 -0.0584598442     2     9     6     2
 -0.0035090474     2     9     6     4
 0.0053631272     2     9     6     6
 0.0012497402     2     9     6    10
 0.0014059699     2     9     7     3
 0.0015192016     2     9     7     7
 -0.0060562931     2     9     7     8
 0.0284730257     2     9     8     3
 -0.0021942466     2     9     8     7
 -0.0121666434     2     9     8     8
 -0.0017447492     2     9     9     1
 -0.4073207978     2     9     9     2
 0.0256714067     2     9     9     4
 0.0204652555     2     9     9     6
 -0.0055530847     2     9     9    10
 0.0053221299     2     9    10     1
 0.0147393324     2     9    10     2
 0.0081568832     2     9    10     4
 0.0019384941     2     9    10     6
 -0.0117659702     2     9    10    10
 0.0364755882     2    10     1     1
 0.0055583148     2    10     1     2
 -0.0042360987     2    10     1     4
 -0.0014507661     2    10     1     6
 -0.0009305119     2    10     1     9
 0.0152887316     2    10     3     3
 0.0031877068     2    10     3     7
 -0.0026530661     2    10     3     8
 0.0159761059     2    10     4     1
 0.0904202251     2    10     4     2
 0.0217273079     2    10     4     4
 -0.0150929764     2    10     4     6
 -0.0118079119     2    10     4     9
 0.0249753238     2    10     5     5
 0.0037506884     2    10     6     1
 0.0526815450     2    10     6     2
 -0.0215550950     2    10     6     4
 -0.0067254547     2    10     6     6
 -0.0012497402     2    10     6     9
 0.0001670992     2    10     7     3
 0.0002406356     2    10     7     7
 0.0040837005     2    10     7     8
 -0.0265366928     2    10     8     3
 -0.0000224056     2    10     8     7
 0.0073877623     2    10     8     8
 0.0044070857     2    10     9     1
 0.0147393324     2    10     9     2
 -0.0054386646     2    10     9     4
 0.0007148694     2    10     9     6
 0.0055530847     2    10     9     9
 -0.0134759240     2    10    10     1
 -0.4055457572     2    10    10     2
 -0.0210580474     2    10    10     4
 0.0220211342     2    10    10     6
 0.0117659702     2    10    10     9
 -0.8687299676     3     1     1     3
 -0.1597156309     3     1     1     7
 -0.0945525102     3     1     1     8
 -0.0307683952     3     1     2     3
 -0.0090955619     3     1     2     7
 -0.0074080045     3     1     2     8
 -0.0105942633     3     1     4     3
 -0.0032851333     3     1     4     7
 -0.0023993428     3     1     4     8
 0.0045377966     3     1     6     3
 0.0044396019     3     1     6     7
 0.0026762613     3     1     6     8
 0.0026379481     3     1     7     2
 -0.0012973164     3     1     7     4
 0.0021349990     3     1     7     6
 0.0019733721     3     1     7     9
 0.0002017989     3     1     7    10
 0.0032691672     3     1     8     2
 -0.0050069767     3     1     8     4
 -0.0004336524     3     1     8     6
 0.0028935204     3     1     8     9
 -0.0004987087     3     1     8    10
 0.0002218558     3     1     9     3
 0.0024277543     3     1     9     7
 0.0045623196     3     1     9     8
 0.0025859964     3     1    10     3
 -0.0001797973     3     1    10     7
 -0.0038560123     3     1    10     8
 -0.0307683952     3     2     1     3
 -0.0125254963     3     2     1     7
 -0.0112809972     3     2     1     8
 -0.5275542166     3     2     2     3
 -0.0647166911     3     2     2     7
 -0.0185804808     3     2     2     8
 -0.0024775861     3     2     4     3
 0.0012965316     3     2     4     7
 0.0061457582     3     2     4     8
 0.0623528936     3     2     6     3
 -0.0203842096     3     2     6     7
 0.0026767986     3     2     6     8
 -0.0026379481     3     2     7     1
 0.0105079553     3     2     7     4
 -0.0339648592     3     2     7     6
 -0.0161054466     3     2     7     9
 0.0032833955     3     2     7    10
 -0.0032691672     3     2     8     1
 0.0333593512     3     2     8     4
 0.0001487887     3     2     8     6
 -0.0292401375     3     2     8     9
 0.0233574320     3     2     8    10
 0.0683893328     3     2     9     3
 -0.0014059699     3     2     9     7
 -0.0284730257     3     2     9     8
 -0.0152887316     3     2    10     3
 -0.0001670992     3     2    10     7
 0.0265366928     3     2    10     8
 0.8687299676     3     3     1     1
 0.0307683952     3     3     1     2
 0.0105942633     3     3     1     4
 -0.0045377966     3     3     1     6
 -0.0002218558     3     3     1     9
 -0.0025859964     3     3     1    10
 0.0307683952     3     3     2     1
 0.5275542166     3     3     2     2
 0.0024775861     3     3     2     4
 -0.0623528936     3     3     2     6
 -0.0683893328     3     3     2     9
 0.0152887316     3     3     2    10
 0.0105942633     3     3     4     1
 0.0024775861     3     3     4     2
 0.5617528976     3     3     4     4
 0.0319546024     3     3     4     6
 0.0228562787     3     3     4     9
 -0.0911413825     3     3     4    10
 0.5836186915     3     3     5     5
 -0.0045377966     3     3     6     1
 -0.0623528936     3     3     6     2
 0.0319546024     3     3     6     4
 0.3060390846     3     3     6     6
 0.0597033158     3     3     6     9
 -0.0530226881     3     3     6    10
 0.2689070279     3     3     7     7
 0.0452730908     3     3     7     8
 0.0452730908     3     3     8     7
 0.3792905932     3     3     8     8
 -0.0002218558     3     3     9     1
 -0.0683893328     3     3     9     2
 0.0228562787     3     3     9     4
 0.0597033158     3     3     9     6
 0.3901555854     3     3     9     9
 -0.0191437734     3     3     9    10
 -0.0025859964     3     3    10     1
 0.0152887316     3     3    10     2
 -0.0911413825     3     3    10     4
 -0.0530226881     3     3    10     6
 -0.0191437734     3     3    10     9
 0.3911312741     3     3    10    10
 -0.0105942633     3     4     1     3
 -0.0021602222     3     4     1     7
 0.0024744284     3     4     1     8
 -0.0024775861     3     4     2     3
 -0.0092848121     3     4     2     7
 -0.0275155982     3     4     2     8
 -0.5617528976     3     4     4     3
 -0.0783985263     3     4     4     7
 -0.0419563476     3     4     4     8
 -0.0319546024     3     4     6     3
 -0.0006419254     3     4     6     7
 -0.0035617068     3     4     6     8
 0.0012973164     3     4     7     1
 -0.0105079553     3     4     7     2
 0.0074393384     3     4     7     6
 -0.0027643761     3     4     7     9
 -0.0041562213     3     4     7    10
 0.0050069767     3     4     8     1
 -0.0333593512     3     4     8     2
 -0.0001322553     3     4     8     6
 -0.0095529896     3     4     8     9
 -0.0059793200     3     4     8    10
 -0.0228562787     3     4     9     3
 -0.0022863811     3     4     9     7
 0.0092241601     3     4     9     8
 0.0911413825     3     4    10     3
 0.0229346478     3     4    10     7
 0.0130065447     3     4    10     8
 -0.5836186915     3     5     5     3
 -0.0829843512     3     5     5     7
 -0.0340077026     3     5     5     8
 0.0045377966     3     6     1     3
 0.0022512521     3     6     1     7
 0.0030673559     3     6     1     8
 0.0623528936     3     6     2     3
 0.0125510954     3     6     2     7
 0.0017702663     3     6     2     8
 -0.0319546024     3     6     4     3
 -0.0070221034     3     6     4     7
 -0.0027531998     3     6     4     8
 -0.3060390846     3     6     6     3
 -0.0265223477     3     6     6     7
 0.0128371369     3     6     6     8
 -0.0021349990     3     6     7     1
 0.0339648592     3     6     7     2
 -0.0074393384     3     6     7     4
 0.0267072106     3     6     7     9
 -0.0013809686     3     6     7    10
 0.0004336524     3     6     8     1
 -0.0001487887     3     6     8     2
 0.0001322553     3     6     8     4
 -0.0071854271     3     6     8     9
 0.0082481227     3     6     8    10
 -0.0597033158     3     6     9     3
 -0.0136699132     3     6     9     7
 -0.0103378669     3     6     9     8
 0.0530226881     3     6    10     3
 0.0046248873     3     6    10     7
 -0.0044449026     3     6    10     8
 0.1597156309     3     7     1     1
 0.0125254963     3     7     1     2
 0.0021602222     3     7     1     4
 -0.0022512521     3     7     1     6
 -0.0004317211     3     7     1     9
 0.0002696655     3     7     1    10
 0.0090955619     3     7     2     1
 0.0647166911     3     7     2     2
 0.0092848121     3     7     2     4
 -0.0125510954     3     7     2     6
 -0.0130706946     3     7     2     9
 0.0031877068     3     7     2    10
 0.0032851333     3     7     4     1
 -0.0012965316     3     7     4     2
 0.0783985263     3     7     4     4
 0.0070221034     3     7     4     6
 -0.0009542014     3     7     4     9
 -0.0245315342     3     7     4    10
 0.0829843512     3     7     5     5
 -0.0044396019     3     7     6     1
 0.0203842096     3     7     6     2