&FCI NORB=  9,NELEC= 10,MS2=0,
 ORBSYM=1,1,1,1,1,1,1,1,1
 ISYM=1,
&END
 0.9843772805     1     1     2     2
 0.0682133707     1     1     2     4
 -0.1278645173     1     1     2     6
 -0.1039299520     1     1     2     9
 0.8687291906     1     1     3     3
 0.1510169800     1     1     3     7
 0.0892332313     1     1     3     8
 0.0682133707     1     1     4     2
 0.9508388273     1     1     4     4
 0.0661313466     1     1     4     6
 0.0538328852     1     1     4     9
 0.9980992516     1     1     5     5
 -0.1278645173     1     1     6     2
 0.0661313466     1     1     6     4
 0.3477915489     1     1     6     6
 0.1071960857     1     1     6     9
 0.1510169800     1     1     7     3
 0.3252939423     1     1     7     7
 0.0988051461     1     1     7     8
 0.0892332313     1     1     8     3
 0.0988051461     1     1     8     7
 0.4543143707     1     1     8     8
 -0.1039299520     1     1     9     2
 0.0538328852     1     1     9     4
 0.1071960857     1     1     9     6
 0.4543908203     1     1     9     9
 -0.9843772805     1     2     2     1
 -0.0069572950     1     2     2     4
 -0.0009975207     1     2     2     6
 -0.0015571047     1     2     2     9
 0.0307615474     1     2     3     3
 0.0121803819     1     2     3     7
 0.0110828142     1     2     3     8
 -0.0682133707     1     2     4     1
 0.0357286309     1     2     4     4
 0.0068166103     1     2     4     6
 0.0076034722     1     2     4     9
 0.0406845034     1     2     5     5
 0.1278645173     1     2     6     1
 0.0065179418     1     2     6     4
 0.0019013239     1     2     6     6
 0.0022808161     1     2     6     9
 0.0086919373     1     2     7     3
 0.0048925274     1     2     7     7
 0.0043261057     1     2     7     8
 0.0071943293     1     2     8     3
 0.0038458246     1     2     8     7
 0.0033705309     1     2     8     8
 0.1039299520     1     2     9     1
 0.0065206787     1     2     9     4
 0.0019761738     1     2     9     6
 0.0017537153     1     2     9     9
 0.0026407718     1     3     2     7
 0.0032692338     1     3     2     8
 -0.8687291906     1     3     3     1
 -0.0307615474     1     3     3     2
 -0.0106001591     1     3     3     4
 0.0045157595     1     3     3     6
 0.0001972985     1     3     3     9
 -0.0013018894     1     3     4     7
 -0.0050186818     1     3     4     8
 0.0021358776     1     3     6     7
 -0.0004337705     1     3     6     8
 -0.1510169800     1     3     7     1
 -0.0086919373     1     3     7     2
 -0.0032318338     1     3     7     4
 0.0043711442     1     3     7     6
 0.0023612227     1     3     7     9
 -0.0892332313     1     3     8     1
 -0.0071943293     1     3     8     2
 -0.0024108786     1     3     8     4
 0.0026312470     1     3     8     6
 0.0045182101     1     3     8     9
 0.0019738230     1     3     9     7
 0.0028928846     1     3     9     8
 -0.0682133707     1     4     2     1
 0.0069572950     1     4     2     2
 -0.0002880199     1     4     2     6
 0.0005522916     1     4     2     9
 0.0106001591     1     4     3     3
 0.0021263812     1     4     3     7
 -0.0024746161     1     4     3     8
 -0.9508388273     1     4     4     1
 -0.0357286309     1     4     4     2
 0.0091307375     1     4     4     6
 0.0096002402     1     4     4     9
 0.0137780361     1     4     5     5
 -0.0661313466     1     4     6     1
 -0.0065179418     1     4     6     2
 0.0040483053     1     4     6     6
 0.0028251531     1     4     6     9
 0.0032318338     1     4     7     3
 0.0027523506     1     4     7     7
 0.0011337601     1     4     7     8
 0.0024108786     1     4     8     3
 0.0028801974     1     4     8     7
 0.0027910921     1     4     8     8
 -0.0538328852     1     4     9     1
 -0.0065206787     1     4     9     2
 0.0029409517     1     4     9     6
 0.0059624923     1     4     9     9
 -0.9980992516     1     5     5     1
 -0.0406845034     1     5     5     2
 -0.0137780361     1     5     5     4
 0.0088947733     1     5     5     6
 0.0118322854     1     5     5     9
 0.1278645173     1     6     2     1
 0.0009975207     1     6     2     2
 0.0002880199     1     6     2     4
 0.0003227810     1     6     2     9
 -0.0045157595     1     6     3     3
 -0.0021120485     1     6     3     7
 -0.0029873851     1     6     3     8
 -0.0661313466     1     6     4     1
 -0.0068166103     1     6     4     2
 -0.0091307375     1     6     4     4
 -0.0001491656     1     6     4     9
 -0.0088947733     1     6     5     5
 -0.3477915489     1     6     6     1
 -0.0019013239     1     6     6     2
 -0.0040483053     1     6     6     4
 -0.0003818245     1     6     6     9
 -0.0043711442     1     6     7     3
 -0.0017704067     1     6     7     7
 -0.0017489010     1     6     7     8
 -0.0026312470     1     6     8     3
 -0.0008396351     1     6     8     7
 -0.0005689777     1     6     8     8
 -0.1071960857     1     6     9     1
 -0.0019761738     1     6     9     2
 -0.0029409517     1     6     9     4
 0.0007202352     1     6     9     9
 -0.0026407718     1     7     2     3
 0.0004622420     1     7     2     8
 -0.1510169800     1     7     3     1
 -0.0121803819     1     7     3     2
 -0.0021263812     1     7     3     4
 0.0021120485     1     7     3     6
 0.0003147239     1     7     3     9
 0.0013018894     1     7     4     3
 -0.0017205242     1     7     4     8
 -0.0021358776     1     7     6     3
 -0.0009107837     1     7     6     8
 -0.3252939423     1     7     7     1
 -0.0048925274     1     7     7     2
 -0.0027523506     1     7     7     4
 0.0017704067     1     7     7     6
 0.0009191861     1     7     7     9
 -0.0988051461     1     7     8     1
 -0.0038458246     1     7     8     2
 -0.0028801974     1     7     8     4
 0.0008396351     1     7     8     6
 0.0016040236     1     7     8     9
 -0.0019738230     1     7     9     3
 0.0005408700     1     7     9     8
 -0.0032692338     1     8     2     3
 -0.0004622420     1     8     2     7
 -0.0892332313     1     8     3     1
 -0.0110828142     1     8     3     2
 0.0024746161     1     8     3     4
 0.0029873851     1     8     3     6
 0.0015981864     1     8     3     9
 0.0050186818     1     8     4     3
 0.0017205242     1     8     4     7
 0.0004337705     1     8     6     3
 0.0009107837     1     8     6     7
 -0.0988051461     1     8     7     1
 -0.0043261057     1     8     7     2
 -0.0011337601     1     8     7     4
 0.0017489010     1     8     7     6
 0.0010611796     1     8     7     9
 -0.4543143707     1     8     8     1
 -0.0033705309     1     8     8     2
 -0.0027910921     1     8     8     4
 0.0005689777     1     8     8     6
 0.0012105291     1     8     8     9
 -0.0028928846     1     8     9     3
 -0.0005408700     1     8     9     7
 0.1039299520     1     9     2     1
 0.0015571047     1     9     2     2
 -0.0005522916     1     9     2     4
 -0.0003227810     1     9     2     6
 -0.0001972985     1     9     3     3
 -0.0003147239     1     9     3     7
 -0.0015981864     1     9     3     8
 -0.0538328852     1     9     4     1
 -0.0076034722     1     9     4     2
 -0.0096002402     1     9     4     4
 0.0001491656     1     9     4     6
 -0.0118322854     1     9     5     5
 -0.1071960857     1     9     6     1
 -0.0022808161     1     9     6     2
 -0.0028251531     1     9     6     4
 0.0003818245     1     9     6     6
 -0.0023612227     1     9     7     3
 -0.0009191861     1     9     7     7
 -0.0010611796     1     9     7     8
 -0.0045182101     1     9     8     3
 -0.0016040236     1     9     8     7
 -0.0012105291     1     9     8     8
 -0.4543908203     1     9     9     1
 -0.0017537153     1     9     9     2
 -0.0059624923     1     9     9     4
 -0.0007202352     1     9     9     6
 -0.9843772805     2     1     1     2
 -0.0682133707     2     1     1     4
 0.1278645173     2     1     1     6
 0.1039299520     2     1     1     9
 0.0307615474     2     1     3     3
 0.0086919373     2     1     3     7
 0.0071943293     2     1     3     8
 -0.0069572950     2     1     4     2
 0.0357286309     2     1     4     4
 0.0065179418     2     1     4     6
 0.0065206787     2     1     4     9
 0.0406845034     2     1     5     5
 -0.0009975207     2     1     6     2
 0.0068166103     2     1     6     4
 0.0019013239     2     1     6     6
 0.0019761738     2     1     6     9
 0.0121803819     2     1     7     3
 0.0048925274     2     1     7     7
 0.0038458246     2     1     7     8
 0.0110828142     2     1     8     3
 0.0043261057     2     1     8     7
 0.0033705309     2     1     8     8
 -0.0015571047     2     1     9     2
 0.0076034722     2     1     9     4
 0.0022808161     2     1     9     6
 0.0017537153     2     1     9     9
 0.9843772805     2     2     1     1
 0.0069572950     2     2     1     4
 0.0009975207     2     2     1     6
 0.0015571047     2     2     1     9
 0.5276831298     2     2     3     3
 0.0611663768     2     2     3     7
 0.0162508033     2     2     3     8
 0.0069572950     2     2     4     1
 0.5507880036     2     2     4     4
 0.0278483370     2     2     4     6
 0.0168344224     2     2     4     9
 0.5781537173     2     2     5     5
 0.0009975207     2     2     6     1
 0.0278483370     2     2     6     4
 0.3024931216     2     2     6     6
 0.0588883275     2     2     6     9
 0.0611663768     2     2     7     3
 0.2841614409     2     2     7     7
 0.0606844624     2     2     7     8
 0.0162508033     2     2     8     3
 0.0606844624     2     2     8     7
 0.4059930264     2     2     8     8
 0.0015571047     2     2     9     1
 0.0168344224     2     2     9     4
 0.0588883275     2     2     9     6
 0.4076890253     2     2     9     9
 -0.0026407718     2     3     1     7
 -0.0032692338     2     3     1     8
 -0.0307615474     2     3     3     1
 -0.5276831298     2     3     3     2
 -0.0021424711     2     3     3     4
 0.0604798739     2     3     3     6
 0.0670453217     2     3     3     9
 0.0105562207     2     3     4     7
 0.0333658333     2     3     4     8
 -0.0339654649     2     3     6     7
 0.0001144494     2     3     6     8
 -0.0121803819     2     3     7     1
 -0.0611663768     2     3     7     2
 0.0021080243     2     3     7     4
 -0.0211322063     2     3     7     6
 -0.0019698157     2     3     7     9
 -0.0110828142     2     3     8     1
 -0.0162508033     2     3     8     2
 0.0067948356     2     3     8     4
 0.0021488703     2     3     8     6
 -0.0288368281     2     3     8     9
 -0.0161214829     2     3     9     7
 -0.0293193087     2     3     9     8
 0.0682133707     2     4     1     1
 -0.0069572950     2     4     1     2
 0.0002880199     2     4     1     6
 -0.0005522916     2     4     1     9
 0.0021424711     2     4     3     3
 0.0086751606     2     4     3     7
 0.0274125951     2     4     3     8
 -0.0357286309     2     4     4     1
 -0.5507880036     2     4     4     2
 0.0597268056     2     4     4     6
 0.0362884767     2     4     4     9
 0.0049358636     2     4     5     5
 -0.0068166103     2     4     6     1
 -0.0278483370     2     4     6     2
 -0.0106207115     2     4     6     6
 0.0032064896     2     4     6     9
 -0.0021080243     2     4     7     3
 -0.0126150762     2     4     7     7
 -0.0024488557     2     4     7     8
 -0.0067948356     2     4     8     3
 -0.0084044866     2     4     8     7
 -0.0053946529     2     4     8     8
 -0.0076034722     2     4     9     1
 -0.0168344224     2     4     9     2
 0.0028884630     2     4     9     6
 -0.0259434994     2     4     9     9
 -0.0406845034     2     5     5     1
 -0.5781537173     2     5     5     2
 -0.0049358636     2     5     5     4
 0.0580604399     2     5     5     6
 0.0208980872     2     5     5     9
 -0.1278645173     2     6     1     1
 -0.0009975207     2     6     1     2
 -0.0002880199     2     6     1     4
 -0.0003227810     2     6     1     9
 -0.0604798739     2     6     3     3
 -0.0114782604     2     6     3     7
 -0.0009360608     2     6     3     8
 -0.0065179418     2     6     4     1
 -0.0278483370     2     6     4     2
 -0.0597268056     2     6     4     4
 0.0001585710     2     6     4     9
 -0.0580604399     2     6     5     5
 -0.0019013239     2     6     6     1
 -0.3024931216     2     6     6     2
 0.0106207115     2     6     6     4
 -0.0052578772     2     6     6     9
 0.0211322063     2     6     7     3
 -0.0078424076     2     6     7     7
 -0.0125373400     2     6     7     8
 -0.0021488703     2     6     8     3
 -0.0070150453     2     6     8     7
 -0.0247959185     2     6     8     8
 -0.0022808161     2     6     9     1
 -0.0588883275     2     6     9     2
 -0.0028884630     2     6     9     4
 -0.0202388667     2     6     9     9
 0.0026407718     2     7     1     3
 -0.0004622420     2     7     1     8
 -0.0086919373     2     7     3     1
 -0.0611663768     2     7     3     2
 -0.0086751606     2     7     3     4
 0.0114782604     2     7     3     6
 0.0121055389     2     7     3     9
 -0.0105562207     2     7     4     3
 0.0053170409     2     7     4     8
 0.0339654649     2     7     6     3
 -0.0055656240     2     7     6     8
 -0.0048925274     2     7     7     1
 -0.2841614409     2     7     7     2
 0.0126150762     2     7     7     4
 0.0078424076     2     7     7     6
 -0.0017046044     2     7     7     9
 -0.0043261057     2     7     8     1
 -0.0606844624     2     7     8     2
 0.0084044866     2     7     8     4
 0.0070150453     2     7     8     6
 0.0020039942     2     7     8     9
 0.0161214829     2     7     9     3
 -0.0039412290     2     7     9     8
 0.0032692338     2     8     1     3
 0.0004622420     2     8     1     7
 -0.0071943293     2     8     3     1
 -0.0162508033     2     8     3     2
 -0.0274125951     2     8     3     4
 0.0009360608     2     8     3     6
 -0.0008988352     2     8     3     9
 -0.0333658333     2     8     4     3
 -0.0053170409     2     8     4     7
 -0.0001144494     2     8     6     3
 0.0055656240     2     8     6     7
 -0.0038458246     2     8     7     1
 -0.0606844624     2     8     7     2
 0.0024488557     2     8     7     4
 0.0125373400     2     8     7     6
 0.0058552920     2     8     7     9
 -0.0033705309     2     8     8     1
 -0.4059930264     2     8     8     2
 0.0053946529     2     8     8     4
 0.0247959185     2     8     8     6
 0.0116439134     2     8     8     9
 0.0293193087     2     8     9     3
 0.0039412290     2     8     9     7
 -0.1039299520     2     9     1     1
 -0.0015571047     2     9     1     2
 0.0005522916     2     9     1     4
 0.0003227810     2     9     1     6
 -0.0670453217     2     9     3     3
 -0.0121055389     2     9     3     7
 0.0008988352     2     9     3     8
 -0.0065206787     2     9     4     1
 -0.0168344224     2     9     4     2
 -0.0362884767     2     9     4     4
 -0.0001585710     2     9     4     6
 -0.0208980872     2     9     5     5
 -0.0019761738     2     9     6     1
 -0.0588883275     2     9     6     2
 -0.0032064896     2     9     6     4
 0.0052578772     2     9     6     6
 0.0019698157     2     9     7     3
 0.0017046044     2     9     7     7
 -0.0058552920     2     9     7     8
 0.0288368281     2     9     8     3
 -0.0020039942     2     9     8     7
 -0.0116439134     2     9     8     8
 -0.0017537153     2     9     9     1
 -0.4076890253     2     9     9     2
 0.0259434994     2     9     9     4
 0.0202388667     2     9     9     6
 -0.8687291906     3     1     1     3
 -0.1510169800     3     1     1     7
 -0.0892332313     3     1     1     8
 -0.0307615474     3     1     2     3
 -0.0086919373     3     1     2     7
 -0.0071943293     3     1     2     8
 -0.0106001591     3     1     4     3
 -0.0032318338     3     1     4     7
 -0.0024108786     3     1     4     8
 0.0045157595     3     1     6     3
 0.0043711442     3     1     6     7
 0.0026312470     3     1     6     8
 0.0026407718     3     1     7     2
 -0.0013018894     3     1     7     4
 0.0021358776     3     1     7     6
 0.0019738230     3     1     7     9
 0.0032692338     3     1     8     2
 -0.0050186818     3     1     8     4
 -0.0004337705     3     1     8     6
 0.0028928846     3     1     8     9
 0.0001972985     3     1     9     3
 0.0023612227     3     1     9     7
 0.0045182101     3     1     9     8
 -0.0307615474     3     2     1     3
 -0.0121803819     3     2     1     7
 -0.0110828142     3     2     1     8
 -0.5276831298     3     2     2     3
 -0.0611663768     3     2     2     7
 -0.0162508033     3     2     2     8
 -0.0021424711     3     2     4     3
 0.0021080243     3     2     4     7
 0.0067948356     3     2     4     8
 0.0604798739     3     2     6     3
 -0.0211322063     3     2     6     7
 0.0021488703     3     2     6     8
 -0.0026407718     3     2     7     1
 0.0105562207     3     2     7     4
 -0.0339654649     3     2     7     6
 -0.0161214829     3     2     7     9
 -0.0032692338     3     2     8     1
 0.0333658333     3     2     8     4
 0.0001144494     3     2     8     6
 -0.0293193087     3     2     8     9
 0.0670453217     3     2     9     3
 -0.0019698157     3     2     9     7
 -0.0288368281     3     2     9     8
 0.8687291906     3     3     1     1
 0.0307615474     3     3     1     2
 0.0106001591     3     3     1     4
 -0.0045157595     3     3     1     6
 -0.0001972985     3     3     1     9
 0.0307615474     3     3     2     1
 0.5276831298     3     3     2     2
 0.0021424711     3     3     2     4
 -0.0604798739     3     3     2     6
 -0.0670453217     3     3     2     9
 0.0106001591     3     3     4     1
 0.0021424711     3     3     4     2
 0.5603581738     3     3     4     4
 0.0306031870     3     3     4     6
 0.0219455764     3     3     4     9
 0.5836186915     3     3     5     5
 -0.0045157595     3     3     6     1
 -0.0604798739     3     3     6     2
 0.0306031870     3     3     6     4
 0.3060461878     3     3     6     6
 0.0597041743     3     3     6     9
 0.2700095836     3     3     7     7
 0.0459750891     3     3     7     8
 0.0459750891     3     3     8     7
 0.3797604094     3     3     8     8
 -0.0001972985     3     3     9     1
 -0.0670453217     3     3     9     2
 0.0219455764     3     3     9     4
 0.0597041743     3     3     9     6
 0.3901529563     3     3     9     9
 -0.0106001591     3     4     1     3
 -0.0021263812     3     4     1     7
 0.0024746161     3     4     1     8
 -0.0021424711     3     4     2     3
 -0.0086751606     3     4     2     7
 -0.0274125951     3     4     2     8
 -0.5603581738     3     4     4     3
 -0.0767823895     3     4     4     7
 -0.0404423127     3     4     4     8
 -0.0306031870     3     4     6     3
 -0.0002687268     3     4     6     7
 -0.0033687472     3     4     6     8
 0.0013018894     3     4     7     1
 -0.0105562207     3     4     7     2
 0.0074477830     3     4     7     6
 -0.0027801639     3     4     7     9
 0.0050186818     3     4     8     1
 -0.0333658333     3     4     8     2
 -0.0001633071     3     4     8     6
 -0.0096313840     3     4     8     9
 -0.0219455764     3     4     9     3
 -0.0020307679     3     4     9     7
 0.0093865863     3     4     9     8
 -0.5836186915     3     5     5     3
 -0.0792789940     3     5     5     7
 -0.0317549924     3     5     5     8
 0.0045157595     3     6     1     3
 0.0021120485     3     6     1     7
 0.0029873851     3     6     1     8
 0.0604798739     3     6     2     3
 0.0114782604     3     6     2     7
 0.0009360608     3     6     2     8
 -0.0306031870     3     6     4     3
 -0.0068942162     3     6     4     7
 -0.0026531398     3     6     4     8
 -0.3060461878     3     6     6     3
 -0.0260301575     3     6     6     7
 0.0131653491     3     6     6     8
 -0.0021358776     3     6     7     1
 0.0339654649     3     6     7     2
 -0.0074477830     3     6     7     4
 0.0267067407     3     6     7     9
 0.0004337705     3     6     8     1
 -0.0001144494     3     6     8     2
 0.0001633071     3     6     8     4
 -0.0071813772     3     6     8     9
 -0.0597041743     3     6     9     3
 -0.0132162672     3     6     9     7
 -0.0100462450     3     6     9     8
 0.1510169800     3     7     1     1
 0.0121803819     3     7     1     2
 0.0021263812     3     7     1     4
 -0.0021120485     3     7     1     6
 -0.0003147239     3     7     1     9
 0.0086919373     3     7     2     1
 0.0611663768     3     7     2     2
 0.0086751606     3     7     2     4
 -0.0114782604     3     7     2     6
 -0.0121055389     3     7     2     9
 0.0032318338     3     7     4     1
 -0.0021080243     3     7     4     2
 0.0767823895     3     7     4     4
 0.0068942162     3     7     4     6
 -0.0013244863     3     7     4     9
 0.0792789940     3     7     5     5
 -0.0043711442     3     7     6     1
 0.0211322063     3     7     6     2
 0.0002687268     3     7     6     4
 0.0260301575     3     7     6     6
 0.0398119679     3     7     6     9
 -0.2700095836     3     7     7     3
 0.0187302419     3     7     7     8
 -0.0459750891     3     7     8     3
 0.0289926913     3     7     8     8
 -0.0023612227     3     7     9     1
 0.0019698157     3     7     9     2
 0.0020307679     3     7     9     4
 0.0132162672     3     7     9     6
 0.0322273015     3     7     9     9
 0.0892332313     3     8     1     1
 0.0110828142     3     8     1     2
 -0.0024746161     3     8     1     4
 -0.0029873851     3     8     1     6
 -0.0015981864     3     8     1     9
 0.0071943293     3     8     2     1
 0.0162508033     3     8     2     2
 0.0274125951     3     8     2     4
 -0.0009360608     3     8     2     6
 0.0008988352     3     8     2     9
 0.0024108786     3     8     4     1
 -0.0067948356     3     8     4     2
 0.0404423127     3     8     4     4
 0.0026531398     3     8     4     6
 -0.0185070614     3     8     4     9
 0.0317549924     3     8     5     5
 -0.0026312470     3     8     6     1
 -0.0021488703     3     8     6     2
 0.0033687472     3     8     6     4
 -0.0131653491     3     8     6     6
 0.0025963824     3     8     6     9
 -0.0459750891     3     8     7     3
 -0.0187302419     3     8     7     7
 -0.3797604094     3     8     8     3
 -0.0289926913     3     8     8     7
 -0.0045182101     3     8     9     1
 0.0288368281     3     8     9     2
 -0.0093865863     3     8     9     4
 0.0100462450     3     8     9     6
 0.0047886106     3     8     9     9
 0.0001972985     3     9     1     3
 0.0003147239     3     9     1     7
 0.0015981864     3     9     1     8
 0.0670453217     3     9     2     3
 0.0121055389     3     9     2     7
 -0.0008988352     3     9     2     8
 -0.0219455764     3     9     4     3
 0.0013244863     3     9     4     7
 0.0185070614     3     9     4     8
 -0.0597041743     3     9     6     3
 -0.0398119679     3     9     6     7
 -0.0025963824     3     9     6     8
 -0.0019738230     3     9     7     1
 0.0161214829     3     9     7     2
 0.0027801639     3     9     7     4
 -0.0267067407     3     9     7     6
 -0.0028928846     3     9     8     1
 0.0293193087     3     9     8     2
 0.0096313840     3     9     8     4
 0.0071813772     3     9     8     6
 -0.3901529563     3     9     9     3
 -0.0322273015     3     9     9     7
 -0.0047886106     3     9     9     8
 -0.0682133707     4     1     1     2
 -0.9508388273     4     1     1     4
 -0.0661313466     4     1     1     6
 -0.0538328852     4     1     1     9
 0.0069572950     4     1     2     2
 -0.0357286309     4     1     2     4
 -0.0065179418     4     1     2     6
 -0.0065206787     4     1     2     9
 0.0106001591     4     1     3     3
 0.0032318338     4     1     3     7
 0.0024108786     4     1     3     8
 0.0137780361     4     1     5     5
 -0.0002880199     4     1     6     2
 0.0091307375     4     1     6     4
 0.0040483053     4     1     6     6
 0.0029409517     4     1     6     9
 0.0021263812     4     1     7     3
 0.0027523506     4     1     7     7
 0.0028801974     4     1     7     8
 -0.0024746161     4     1     8     3
 0.0011337601     4     1     8     7
 0.0027910921     4     1     8     8
 0.0005522916     4     1     9     2
 0.0096002402     4     1     9     4
 0.0028251531     4     1     9     6
 0.0059624923     4     1     9     9
 0.0682133707     4     2     1     1
 -0.0357286309     4     2     1     4
 -0.0068166103     4     2     1     6
 -0.0076034722     4     2     1     9
 -0.0069572950     4     2     2     1
 -0.5507880036     4     2     2     4
 -0.0278483370     4     2     2     6
 -0.0168344224     4     2     2     9
 0.0021424711     4     2     3     3
 -0.0021080243     4     2     3     7
 -0.0067948356     4     2     3     8
 0.0049358636     4     2     5     5
 0.0002880199     4     2     6     1
 0.0597268056     4     2     6     4
 -0.0106207115     4     2     6     6
 0.0028884630     4     2     6     9
 0.0086751606     4     2     7     3
 -0.0126150762     4     2     7     7
 -0.0084044866     4     2     7     8
 0.0274125951     4     2     8     3
 -0.0024488557     4     2     8     7
 -0.0053946529     4     2     8     8
 -0.0005522916     4     2     9     1
 0.0362884767     4     2     9     4
 0.0032064896     4     2     9     6
 -0.0259434994     4     2     9     9
 0.0013018894     4     3     1     7
 0.0050186818     4     3     1     8
 -0.0105562207     4     3     2     7
 -0.0333658333     4     3     2     8
 -0.0106001591     4     3     3     1
 -0.0021424711     4     3     3     2
 -0.5603581738     4     3     3     4
 -0.0306031870     4     3     3     6
 -0.0219455764     4     3     3     9
 0.0074477830     4     3     6     7
 -0.0001633071     4     3     6     8
 -0.0021263812     4     3     7     1
 -0.0086751606     4     3     7     2
 -0.0767823895     4     3     7     4
 -0.0002687268     4     3     7     6
 -0.0020307679     4     3     7     9
 0.0024746161     4     3     8     1
 -0.0274125951     4     3     8     2
 -0.0404423127     4     3     8     4
 -0.0033687472     4     3     8     6
 0.0093865863     4     3     8     9
 -0.0027801639     4     3     9     7
 -0.0096313840     4     3     9     8
 0.9508388273     4     4     1     1
 0.0357286309     4     4     1     2
 -0.0091307375     4     4     1     6
 -0.0096002402     4     4     1     9
 0.0357286309     4     4     2     1
 0.5507880036     4     4     2     2
 -0.0597268056     4     4     2     6
 -0.0362884767     4     4     2     9
 0.5603581738     4     4     3     3
 0.0767823895     4     4     3     7
 0.0404423127     4     4     3     8
 0.6043914512     4     4     5     5
 -0.0091307375     4     4     6     1
 -0.0597268056     4     4     6     2
 0.2923067450     4     4     6     6
 0.0562589723     4     4     6     9
 0.0767823895     4     4     7     3
 0.2740458708     4     4     7     7
 0.0530518332     4     4     7     8
 0.0404423127     4     4     8     3
 0.0530518332     4     4     8     7
 0.3761887669     4     4     8     8
 -0.0096002402     4     4     9     1
 -0.0362884767     4     4     9     2
 0.0562589723     4     4     9     6
 0.3783758840     4     4     9     9
 -0.0137780361     4     5     5     1
 -0.0049358636     4     5     5     2
 -0.6043914512     4     5     5     4
 -0.0371605644     4     5     5     6
 -0.0270052385     4     5     5     9
 0.0661313466     4     6     1     1
 0.0068166103     4     6     1     2
 0.0091307375     4     6     1     4
 0.0001491656     4     6     1     9
 0.0065179418     4     6     2     1
 0.0278483370     4     6     2     2
 0.0597268056     4     6     2     4
 -0.0001585710     4     6     2     9
 0.0306031870     4     6     3     3
 0.0068942162     4     6     3     7
 0.0026531398     4     6     3     8
 0.0371605644     4     6     5     5
 -0.0040483053     4     6     6     1
 0.0106207115     4     6     6     2
 -0.2923067450     4     6     6     4
 0.0057921618     4     6     6     9
 0.0002687268     4     6     7     3
 0.0079620298     4     6     7     7
 0.0257572509     4     6     7     8
 0.0033687472     4     6     8     3
 0.0011322780     4     6     8     7
 0.0097396053     4     6     8     8
 -0.0028251531     4     6     9     1
 -0.0032064896     4     6     9     2
 -0.0562589723     4     6     9     4
 0.0036107504     4     6     9     9
 -0.0013018894     4     7     1     3
 0.0017205242     4     7     1     8
 0.0105562207     4     7     2     3
 -0.0053170409     4     7     2     8
 -0.0032318338     4     7     3     1
 0.0021080243     4     7     3     2
 -0.0767823895     4     7     3     4
 -0.0068942162     4     7     3     6
 0.0013244863     4     7     3     9
 -0.0074477830     4     7     6     3
 0.0246065499     4     7     6     8
 -0.0027523506     4     7     7     1
 0.0126150762     4     7     7     2
 -0.2740458708     4     7     7     4
 -0.0079620298     4     7     7     6
 0.0014945495     4     7     7     9
 -0.0011337601     4     7     8     1
 0.0024488557     4     7     8     2
 -0.0530518332     4     7     8     4
 -0.0011322780     4     7     8     6
 -0.0071217569     4     7     8     9
 0.0027801639     4     7     9     3
 0.0011226765     4     7     9     8
 -0.0050186818     4     8     1     3
 -0.0017205242     4     8     1     7
 0.0333658333     4     8     2     3
 0.0053170409     4     8     2     7
 -0.0024108786     4     8     3     1
 0.0067948356     4     8     3     2