&FCI NORB= 14,NELEC= 10,MS2=0,
 ORBSYM=1,1,1,1,1,1,1,1,1,1,1,1,1,1
 ISYM=1,
&END
 0.9842453475     1     1     2     2
 0.0666662606     1     1     2     4
 -0.1066178978     1     1     2     6
 0.0538183066     1     1     2     8
 -0.1104953362     1     1     2    11
 0.0538239503     1     1     2    13
 0.8707578201     1     1     3     3
 -0.1170205088     1     1     3     7
 -0.0453459263     1     1     3     9
 0.2228991573     1     1     3    12
 0.0666662606     1     1     4     2
 0.9502709562     1     1     4     4
 0.0595256515     1     1     4     6
 0.1227905905     1     1     4     8
 0.1599111392     1     1     4    11
 -0.0573399282     1     1     4    13
 0.9956648585     1     1     5     5
 0.2224274491     1     1     5    10
 -0.1066178978     1     1     6     2
 0.0595256515     1     1     6     4
 0.2797004130     1     1     6     6
 -0.0147173670     1     1     6     8
 0.1066154366     1     1     6    11
 -0.0477896099     1     1     6    13
 -0.1170205088     1     1     7     3
 0.2410305039     1     1     7     7
 0.0304935473     1     1     7     9
 -0.1283586562     1     1     7    12
 0.0538183066     1     1     8     2
 0.1227905905     1     1     8     4
 -0.0147173670     1     1     8     6
 0.3089592585     1     1     8     8
 0.0208554075     1     1     8    11
 -0.0204484623     1     1     8    13
 -0.0453459263     1     1     9     3
 0.0304935473     1     1     9     7
 0.3141482326     1     1     9     9
 -0.0679285781     1     1     9    12
 0.2224274491     1     1    10     5
 0.3957859287     1     1    10    10
 -0.1104953362     1     1    11     2
 0.1599111392     1     1    11     4
 0.1066154366     1     1    11     6
 0.0208554075     1     1    11     8
 0.4230237814     1     1    11    11
 -0.0396326051     1     1    11    13
 0.2228991573     1     1    12     3
 -0.1283586562     1     1    12     7
 -0.0679285781     1     1    12     9
 0.4508232372     1     1    12    12
 0.0538239503     1     1    13     2
 -0.0573399282     1     1    13     4
 -0.0477896099     1     1    13     6
 -0.0204484623     1     1    13     8
 -0.0396326051     1     1    13    11
 0.3359279617     1     1    13    13
 0.3247525325     1     1    14    14
 -0.9842453475     1     2     2     1
 -0.0070304914     1     2     2     4
 -0.0010854769     1     2     2     6
 -0.0020332330     1     2     2     8
 -0.0034291508     1     2     2    11
 0.0014546436     1     2     2    13
 0.0311471016     1     2     3     3
 -0.0084911708     1     2     3     7
 -0.0052053204     1     2     3     9
 0.0199321013     1     2     3    12
 -0.0666662606     1     2     4     1
 0.0360334922     1     2     4     4
 0.0054509274     1     2     4     6
 0.0077963399     1     2     4     8
 0.0144182533     1     2     4    11
 -0.0060920354     1     2     4    13
 0.0408109603     1     2     5     5
 0.0169388729     1     2     5    10
 0.1066178978     1     2     6     1
 0.0052059346     1     2     6     4
 0.0009929754     1     2     6     6
 0.0011753706     1     2     6     8
 0.0027234455     1     2     6    11
 -0.0011056952     1     2     6    13
 -0.0062574010     1     2     7     3
 0.0021295974     1     2     7     7
 0.0012137790     1     2     7     9
 -0.0051993683     1     2     7    12
 -0.0538183066     1     2     8     1
 0.0056110762     1     2     8     4
 0.0007804218     1     2     8     6
 0.0020648177     1     2     8     8
 0.0030085767     1     2     8    11
 -0.0009441139     1     2     8    13
 -0.0034662427     1     2     9     3
 0.0010627459     1     2     9     7
 0.0008697067     1     2     9     9
 -0.0024785040     1     2     9    12
 0.0128925879     1     2    10     5
 0.0072412698     1     2    10    10
 0.1104953362     1     2    11     1
 0.0118800560     1     2    11     4
 0.0022727457     1     2    11     6
 0.0035001362     1     2    11     8
 0.0061662652     1     2    11    11
 -0.0024064594     1     2    11    13
 0.0135776072     1     2    12     3
 -0.0047969310     1     2    12     7
 -0.0025983372     1     2    12     9
 0.0110192880     1     2    12    12
 -0.0538239503     1     2    13     1
 -0.0046207437     1     2    13     4
 -0.0008277100     1     2    13     6
 -0.0010347339     1     2    13     8
 -0.0021760336     1     2    13    11
 0.0007066183     1     2    13    13
 -0.0002232608     1     2    14    14
 -0.0015976166     1     3     2     7
 -0.0014055995     1     3     2     9
 0.0049982959     1     3     2    12
 -0.8707578201     1     3     3     1
 -0.0311471016     1     3     3     2
 -0.0105373846     1     3     3     4
 0.0035281842     1     3     3     6
 -0.0036086804     1     3     3     8
 0.0002223349     1     3     3    11
 -0.0032823564     1     3     3    13
 0.0007031790     1     3     4     7
 0.0028388559     1     3     4     9
 -0.0021412459     1     3     4    12
 -0.0026491664     1     3     5    14
 -0.0015003433     1     3     6     7
 0.0003186737     1     3     6     9
 0.0012978928     1     3     6    12
 0.1170205088     1     3     7     1
 0.0062574010     1     3     7     2
 0.0022134088     1     3     7     4
 -0.0026717602     1     3     7     6
 0.0014459027     1     3     7     8
 -0.0016298742     1     3     7    11
 0.0004009105     1     3     7    13
 0.0007606786     1     3     8     7
 -0.0007730167     1     3     8     9
 -0.0021390958     1     3     8    12
 0.0453459263     1     3     9     1
 0.0034662427     1     3     9     2
 0.0011349803     1     3     9     4
 -0.0008635361     1     3     9     6
 -0.0009812906     1     3     9     8
 -0.0025612884     1     3     9    11
 0.0013772141     1     3     9    13
 0.0007848038     1     3    10    14
 -0.0010754436     1     3    11     7
 -0.0009751836     1     3    11     9
 0.0027845385     1     3    11    12
 -0.2228991573     1     3    12     1
 -0.0135776072     1     3    12     2
 -0.0046879412     1     3    12     4
 0.0042542523     1     3    12     6
 -0.0035197121     1     3    12     8
 0.0046199964     1     3    12    11
 -0.0020201981     1     3    12    13
 -0.0007358514     1     3    13     7
 0.0002435010     1     3    13     9
 0.0008214951     1     3    13    12
 0.0001850076     1     3    14     5
 0.0021077030     1     3    14    10
 -0.0666662606     1     4     2     1
 0.0070304914     1     4     2     2
 -0.0002568207     1     4     2     6
 0.0015941711     1     4     2     8
 0.0013903282     1     4     2    11
 -0.0010087724     1     4     2    13
 0.0105373846     1     4     3     3
 -0.0016571779     1     4     3     7
 0.0016807083     1     4     3     9
 0.0028731606     1     4     3    12
 -0.9502709562     1     4     4     1
 -0.0360334922     1     4     4     2
 0.0068998843     1     4     4     6
 -0.0022972652     1     4     4     8
 0.0095189269     1     4     4    11
 -0.0014874527     1     4     4    13
 0.0136163536     1     4     5     5
 0.0055264713     1     4     5    10
 -0.0595256515     1     4     6     1
 -0.0052059346     1     4     6     2
 0.0026135517     1     4     6     6
 0.0006935213     1     4     6     8
 0.0031380267     1     4     6    11
 -0.0012182461     1     4     6    13
 -0.0022134088     1     4     7     3
 0.0014580663     1     4     7     7
 0.0007890069     1     4     7     9
 -0.0017510802     1     4     7    12
 -0.1227905905     1     4     8     1
 -0.0056110762     1     4     8     2
 0.0025461130     1     4     8     6
 -0.0018471434     1     4     8     8
 0.0009189348     1     4     8    11
 -0.0018114697     1     4     8    13
 -0.0011349803     1     4     9     3
 0.0015076526     1     4     9     7
 -0.0001101537     1     4     9     9
 -0.0035211772     1     4     9    12
 0.0045392125     1     4    10     5
 0.0022520663     1     4    10    10
 -0.1599111392     1     4    11     1
 -0.0118800560     1     4    11     2
 0.0044761023     1     4    11     6
 -0.0020887920     1     4    11     8
 0.0061889397     1     4    11    11
 -0.0025330404     1     4    11    13
 0.0046879412     1     4    12     3
 -0.0019082717     1     4    12     7
 -0.0019521079     1     4    12     9
 0.0047925571     1     4    12    12
 0.0573399282     1     4    13     1
 0.0046207437     1     4    13     2
 -0.0022072940     1     4    13     6
 -0.0011574941     1     4    13     8
 -0.0036459213     1     4    13    11
 0.0029605116     1     4    13    13
 0.0018755415     1     4    14    14
 0.0027698568     1     5     2    10
 -0.0029334852     1     5     3    14
 0.0006737040     1     5     4    10
 -0.9956648585     1     5     5     1
 -0.0408109603     1     5     5     2
 -0.0136163536     1     5     5     4
 0.0063881414     1     5     5     6
 -0.0071901334     1     5     5     8
 0.0076240418     1     5     5    11
 -0.0034982430     1     5     5    13
 0.0021001462     1     5     6    10
 -0.0005090117     1     5     7    14
 0.0001847696     1     5     8    10
 0.0000685654     1     5     9    14
 -0.2224274491     1     5    10     1
 -0.0128925879     1     5    10     2
 -0.0045392125     1     5    10     4
 0.0048361290     1     5    10     6
 -0.0028275059     1     5    10     8
 0.0025492361     1     5    10    11
 -0.0015296236     1     5    10    13
 -0.0008306135     1     5    11    10
 0.0003082499     1     5    12    14
 -0.0000053504     1     5    13    10
 -0.0001850076     1     5    14     3
 -0.0012814049     1     5    14     7
 -0.0003554597     1     5    14     9
 0.0020822830     1     5    14    12
 0.1066178978     1     6     2     1
 0.0010854769     1     6     2     2
 0.0002568207     1     6     2     4
 0.0004044931     1     6     2     8
 0.0004733180     1     6     2    11
 -0.0002887173     1     6     2    13
 -0.0035281842     1     6     3     3
 0.0011600909     1     6     3     7
 0.0011922428     1     6     3     9
 -0.0029757520     1     6     3    12
 -0.0595256515     1     6     4     1
 -0.0054509274     1     6     4     2
 -0.0068998843     1     6     4     4
 -0.0018639991     1     6     4     8
 -0.0013736800     1     6     4    11
 0.0010003399     1     6     4    13
 -0.0063881414     1     6     5     5
 -0.0027130511     1     6     5    10
 -0.2797004130     1     6     6     1
 -0.0009929754     1     6     6     2
 -0.0026135517     1     6     6     4
 -0.0004746634     1     6     6     8
 -0.0006374983     1     6     6    11
 0.0002570619     1     6     6    13
 0.0026717602     1     6     7     3
 -0.0006586368     1     6     7     7
 -0.0003742755     1     6     7     9
 0.0018212537     1     6     7    12
 0.0147173670     1     6     8     1
 -0.0007804218     1     6     8     2
 -0.0025461130     1     6     8     4
 -0.0009759295     1     6     8     8
 -0.0010524351     1     6     8    11
 0.0001345157     1     6     8    13
 0.0008635361     1     6     9     3
 -0.0000535583     1     6     9     7
 -0.0002057170     1     6     9     9
 0.0001137763     1     6     9    12
 -0.0048361290     1     6    10     5
 -0.0022813714     1     6    10    10
 -0.1066154366     1     6    11     1
 -0.0022727457     1     6    11     2
 -0.0044761023     1     6    11     4
 -0.0014783091     1     6    11     8
 -0.0009692486     1     6    11    11
 0.0003722402     1     6    11    13
 -0.0042542523     1     6    12     3
 0.0012312637     1     6    12     7
 0.0005308484     1     6    12     9
 -0.0027691896     1     6    12    12
 0.0477896099     1     6    13     1
 0.0008277100     1     6    13     2
 0.0022072940     1     6    13     4
 0.0003026039     1     6    13     8
 0.0003600423     1     6    13    11
 0.0001566312     1     6    13    13
 0.0003664180     1     6    14    14
 0.0015976166     1     7     2     3
 0.0001493284     1     7     2     9
 -0.0003799184     1     7     2    12
 0.1170205088     1     7     3     1
 0.0084911708     1     7     3     2
 0.0016571779     1     7     3     4
 -0.0011600909     1     7     3     6
 0.0006986211     1     7     3     8
 -0.0005117122     1     7     3    11
 0.0011278753     1     7     3    13
 -0.0007031790     1     7     4     3
 -0.0007274645     1     7     4     9
 0.0001703504     1     7     4    12
 0.0007749533     1     7     5    14
 0.0015003433     1     7     6     3
 -0.0003201775     1     7     6     9
 0.0005875814     1     7     6    12
 -0.2410305039     1     7     7     1
 -0.0021295974     1     7     7     2
 -0.0014580663     1     7     7     4
 0.0006586368     1     7     7     6
 -0.0006004272     1     7     7     8
 0.0001850723     1     7     7    11
 -0.0000088898     1     7     7    13
 -0.0007606786     1     7     8     3
 0.0003372245     1     7     8     9
 0.0001086253     1     7     8    12
 -0.0304935473     1     7     9     1
 -0.0010627459     1     7     9     2
 -0.0015076526     1     7     9     4
 0.0000535583     1     7     9     6
 0.0000066068     1     7     9     8
 0.0002242205     1     7     9    11
 -0.0001978373     1     7     9    13
 -0.0002195569     1     7    10    14
 0.0010754436     1     7    11     3
 0.0001074452     1     7    11     9
 -0.0000905474     1     7    11    12
 0.1283586562     1     7    12     1
 0.0047969310     1     7    12     2
 0.0019082717     1     7    12     4
 -0.0012312637     1     7    12     6
 0.0011423514     1     7    12     8
 -0.0012410760     1     7    12    11
 0.0005576897     1     7    12    13
 0.0007358514     1     7    13     3
 -0.0001808047     1     7    13     9
 0.0002378863     1     7    13    12
 0.0012814049     1     7    14     5
 0.0000030649     1     7    14    10
 -0.0538183066     1     8     2     1
 0.0020332330     1     8     2     2
 -0.0015941711     1     8     2     4
 -0.0004044931     1     8     2     6
 -0.0005319587     1     8     2    11
 0.0001127297     1     8     2    13
 0.0036086804     1     8     3     3
 -0.0006986211     1     8     3     7
 0.0001940901     1     8     3     9
 0.0014591992     1     8     3    12
 -0.1227905905     1     8     4     1
 -0.0077963399     1     8     4     2
 0.0022972652     1     8     4     4
 0.0018639991     1     8     4     6
 0.0030392052     1     8     4    11
 -0.0006615890     1     8     4    13
 0.0071901334     1     8     5     5
 0.0030631966     1     8     5    10
 0.0147173670     1     8     6     1
 -0.0011753706     1     8     6     2
 -0.0006935213     1     8     6     4
 0.0004746634     1     8     6     6
 0.0004275417     1     8     6    11
 -0.0001689817     1     8     6    13
 -0.0014459027     1     8     7     3
 0.0006004272     1     8     7     7
 0.0003304304     1     8     7     9
 -0.0010345912     1     8     7    12
 -0.3089592585     1     8     8     1
 -0.0020648177     1     8     8     2
 0.0018471434     1     8     8     4
 0.0009759295     1     8     8     6
 0.0011717932     1     8     8    11
 -0.0007862821     1     8     8    13
 0.0009812906     1     8     9     3
 -0.0000066068     1     8     9     7
 -0.0002217995     1     8     9     9
 -0.0000005311     1     8     9    12
 0.0028275059     1     8    10     5
 0.0013299363     1     8    10    10
 -0.0208554075     1     8    11     1
 -0.0035001362     1     8    11     2
 0.0020887920     1     8    11     4
 0.0014783091     1     8    11     6
 0.0024798004     1     8    11    11
 -0.0010067055     1     8    11    13
 0.0035197121     1     8    12     3
 -0.0011423514     1     8    12     7
 -0.0008343895     1     8    12     9
 0.0027194501     1     8    12    12
 0.0204484623     1     8    13     1
 0.0010347339     1     8    13     2
 0.0011574941     1     8    13     4
 -0.0003026039     1     8    13     6
 -0.0003360201     1     8    13    11
 0.0004605649     1     8    13    13
 0.0004073369     1     8    14    14
 0.0014055995     1     9     2     3
 -0.0001493284     1     9     2     7
 0.0001291496     1     9     2    12
 0.0453459263     1     9     3     1
 0.0052053204     1     9     3     2
 -0.0016807083     1     9     3     4
 -0.0011922428     1     9     3     6
 -0.0001940901     1     9     3     8
 -0.0015935956     1     9     3    11
 0.0011304138     1     9     3    13
 -0.0028388559     1     9     4     3
 0.0007274645     1     9     4     7
 -0.0015724182     1     9     4    12
 0.0004039937     1     9     5    14
 -0.0003186737     1     9     6     3
 0.0003201775     1     9     6     7
 -0.0004175742     1     9     6    12
 -0.0304935473     1     9     7     1
 -0.0012137790     1     9     7     2
 -0.0007890069     1     9     7     4
 0.0003742755     1     9     7     6
 -0.0003304304     1     9     7     8
 0.0001181713     1     9     7    11
 -0.0000181455     1     9     7    13
 0.0007730167     1     9     8     3
 -0.0003372245     1     9     8     7
 0.0008323123     1     9     8    12
 -0.3141482326     1     9     9     1
 -0.0008697067     1     9     9     2
 0.0001101537     1     9     9     4
 0.0002057170     1     9     9     6
 0.0002217995     1     9     9     8
 0.0005772290     1     9     9    11
 -0.0002774481     1     9     9    13
 -0.0001116273     1     9    10    14
 0.0009751836     1     9    11     3
 -0.0001074452     1     9    11     7
 0.0001918106     1     9    11    12
 0.0679285781     1     9    12     1
 0.0025983372     1     9    12     2
 0.0019521079     1     9    12     4
 -0.0005308484     1     9    12     6
 0.0008343895     1     9    12     8
 -0.0002970717     1     9    12    11
 0.0001619566     1     9    12    13
 -0.0002435010     1     9    13     3
 0.0001808047     1     9    13     7
 -0.0002766431     1     9    13    12
 0.0003554597     1     9    14     5
 -0.0001515042     1     9    14    10
 -0.0027698568     1    10     2     5
 -0.0013116938     1    10     3    14
 -0.0006737040     1    10     4     5
 -0.2224274491     1    10     5     1
 -0.0169388729     1    10     5     2
 -0.0055264713     1    10     5     4
 0.0027130511     1    10     5     6
 -0.0030631966     1    10     5     8
 0.0033074815     1    10     5    11
 -0.0014936838     1    10     5    13
 -0.0021001462     1    10     6     5
 -0.0002213685     1    10     7    14
 -0.0001847696     1    10     8     5
 0.0000390605     1    10     9    14
 -0.3957859287     1    10    10     1
 -0.0072412698     1    10    10     2
 -0.0022520663     1    10    10     4
 0.0022813714     1    10    10     6
 -0.0013299363     1    10    10     8
 0.0013209285     1    10    10    11
 -0.0007639147     1    10    10    13
 0.0008306135     1    10    11     5
 0.0001328818     1    10    12    14
 0.0000053504     1    10    13     5
 -0.0021077030     1    10    14     3
 -0.0000030649     1    10    14     7
 0.0001515042     1    10    14     9
 -0.0003588697     1    10    14    12
 0.1104953362     1    11     2     1
 0.0034291508     1    11     2     2
 -0.0013903282     1    11     2     4
 -0.0004733180     1    11     2     6
 0.0005319587     1    11     2     8
 -0.0002270591     1    11     2    13
 -0.0002223349     1    11     3     3
 0.0005117122     1    11     3     7
 0.0015935956     1    11     3     9
 -0.0017949429     1    11     3    12
 -0.1599111392     1    11     4     1
 -0.0144182533     1    11     4     2
 -0.0095189269     1    11     4     4
 0.0013736800     1    11     4     6
 -0.0030392052     1    11     4     8
 0.0010990542     1    11     4    13
 -0.0076240418     1    11     5     5
 -0.0033074815     1    11     5    10
 -0.1066154366     1    11     6     1
 -0.0027234455     1    11     6     2
 -0.0031380267     1    11     6     4
 0.0006374983     1    11     6     6
 -0.0004275417     1    11     6     8
 0.0000120671     1    11     6    13
 0.0016298742     1    11     7     3
 -0.0001850723     1    11     7     7
 -0.0001181713     1    11     7     9
 0.0011519229     1    11     7    12
 -0.0208554075     1    11     8     1
 -0.0030085767     1    11     8     2
 -0.0009189348     1    11     8     4
 0.0010524351     1    11     8     6
 -0.0011717932     1    11     8     8
 -0.0006691066     1    11     8    13
 0.0025612884     1    11     9     3
 -0.0002242205     1    11     9     7
 -0.0005772290     1    11     9     9
 0.0004889369     1    11     9    12
 -0.0025492361     1    11    10     5
 -0.0013209285     1    11    10    10
 -0.4230237814     1    11    11     1
 -0.0061662652     1    11    11     2
 -0.0061889397     1    11    11     4
 0.0009692486     1    11    11     6
 -0.0024798004     1    11    11     8
 -0.0000411096     1    11    11    13
 -0.0046199964     1    11    12     3
 0.0012410760     1    11    12     7
 0.0002970717     1    11    12     9
 -0.0026850680     1    11    12    12
 0.0396326051     1    11    13     1
 0.0021760336     1    11    13     2
 0.0036459213     1    11    13     4
 -0.0003600423     1    11    13     6
 0.0003360201     1    11    13     8
 0.0006955608     1    11    13    13
 0.0008597755     1    11    14    14
 -0.0049982959     1    12     2     3
 0.0003799184     1    12     2     7
 -0.0001291496     1    12     2     9
 -0.2228991573     1    12     3     1
 -0.0199321013     1    12     3     2
 -0.0028731606     1    12     3     4
 0.0029757520     1    12     3     6
 -0.0014591992     1    12     3     8
 0.0017949429     1    12     3    11
 -0.0028304692     1    12     3    13
 0.0021412459     1    12     4     3
 -0.0001703504     1    12     4     7
 0.0015724182     1    12     4     9
 -0.0017624241     1    12     5    14
 -0.0012978928     1    12     6     3
 -0.0005875814     1    12     6     7
 0.0004175742     1    12     6     9
 0.1283586562     1    12     7     1
 0.0051993683     1    12     7     2
 0.0017510802     1    12     7     4
 -0.0018212537     1    12     7     6
 0.0010345912     1    12     7     8
 -0.0011519229     1    12     7    11
 0.0003227966     1    12     7    13
 0.0021390958     1    12     8     3
 -0.0001086253     1    12     8     7
 -0.0008323123     1    12     8     9
 0.0679285781     1    12     9     1
 0.0024785040     1    12     9     2
 0.0035211772     1    12     9     4
 -0.0001137763     1    12     9     6
 0.0000005311     1    12     9     8
 -0.0004889369     1    12     9    11
 0.0004382864     1    12     9    13
 0.0004909598     1    12    10    14
 -0.0027845385     1    12    11     3
 0.0000905474     1    12    11     7
 -0.0001918106     1    12    11     9
 -0.4508232372     1    12    12     1
 -0.0110192880     1    12    12     2
 -0.0047925571     1    12    12     4
 0.0027691896     1    12    12     6
 -0.0027194501     1    12    12     8
 0.0026850680     1    12    12    11
 -0.0012231042     1    12    12    13
 -0.0008214951     1    12    13     3
 -0.0002378863     1    12    13     7
 0.0002766431     1    12    13     9
 -0.0020822830     1    12    14     5
 0.0003588697     1    12    14    10
 -0.0538239503     1    13     2     1
 -0.0014546436     1    13     2     2
 0.0010087724     1    13     2     4
 0.0002887173     1    13     2     6
 -0.0001127297     1    13     2     8
 0.0002270591     1    13     2    11
 0.0032823564     1    13     3     3
 -0.0011278753     1    13     3     7
 -0.0011304138     1    13     3     9
 0.0028304692     1    13     3    12
 0.0573399282     1    13     4     1
 0.0060920354     1    13     4     2
 0.0014874527     1    13     4     4
 -0.0010003399     1    13     4     6
 0.0006615890     1    13     4     8
 -0.0010990542     1    13     4    11
 0.0034982430     1    13     5     5
 0.0014936838     1    13     5    10
 0.0477896099     1    13     6     1
 0.0011056952     1    13     6     2
 0.0012182461     1    13     6     4
 -0.0002570619     1    13     6     6
 0.0001689817     1    13     6     8
 -0.0000120671     1    13     6    11
 -0.0004009105     1    13     7     3
 0.0000088898     1    13     7     7
 0.0000181455     1    13     7     9
 -0.0003227966     1    13     7    12
 0.0204484623     1    13     8     1
 0.0009441139     1    13     8     2
 0.0018114697     1    13     8     4
 -0.0001345157     1    13     8     6
 0.0007862821     1    13     8     8
 0.0006691066     1    13     8    11
 -0.0013772141     1    13     9     3
 0.0001978373     1    13     9     7
 0.0002774481     1    13     9     9
 -0.0004382864     1    13     9    12
 0.0015296236     1    13    10     5
 0.0007639147     1    13    10    10
 0.0396326051     1    13    11     1
 0.0024064594     1    13    11     2
 0.0025330404     1    13    11     4
 -0.0003722402     1    13    11     6
 0.0010067055     1    13    11     8
 0.0000411096     1    13    11    11
 0.0020201981     1    13    12     3
 -0.0005576897     1    13    12     7
 -0.0001619566     1    13    12     9
 0.0012231042     1    13    12    12
 -0.3359279617     1    13    13     1
 -0.0007066183     1    13    13     2
 -0.0029605116     1    13    13     4
 -0.0001566312     1    13    13     6
 -0.0004605649     1    13    13     8
 -0.0006955608     1    13    13    11
 -0.0003413856     1    13    14    14
 0.0029334852     1    14     3     5
 0.0013116938     1    14     3    10
 0.0026491664     1    14     5     3
 -0.0007749533     1    14     5     7
 -0.0004039937     1    14     5     9
 0.0017624241     1    14     5    12
 0.0005090117     1    14     7     5
 0.0002213685     1    14     7    10
 -0.0000685654     1    14     9     5
 -0.0000390605     1    14     9    10
 -0.0007848038     1    14    10     3
 0.0002195569     1    14    10     7
 0.0001116273     1    14    10     9
 -0.0004909598     1    14    10    12
 -0.0003082499     1    14    12     5
 -0.0001328818     1    14    12    10
 -0.3247525325     1    14    14     1
 0.0002232608     1    14    14     2
 -0.0018755415     1    14    14     4
 -0.0003664180     1    14    14     6
 -0.0004073369     1    14    14     8
 -0.0008597755     1    14    14    11
 0.0003413856     1    14    14    13
 -0.9842453475     2     1     1     2
 -0.0666662606     2     1     1     4
 0.1066178978     2     1     1     6
 -0.0538183066     2     1     1     8
 0.1104953362     2     1     1    11
 -0.0538239503     2     1     1    13
 0.0311471016     2     1     3     3
 -0.0062574010     2     1     3     7
 -0.0034662427     2     1     3     9
 0.0135776072     2     1     3    12
 -0.0070304914     2     1     4     2
 0.0360334922     2     1     4     4
 0.0052059346     2     1     4     6
 0.0056110762     2     1     4     8
 0.0118800560     2     1     4    11
 -0.0046207437     2     1     4    13
 0.0408109603     2     1     5     5
 0.0128925879     2     1     5    10
 -0.0010854769     2     1     6     2
 0.0054509274     2     1     6     4
 0.0009929754     2     1     6     6
 0.0007804218     2     1     6     8
 0.0022727457     2     1     6    11
 -0.0008277100     2     1     6    13
 -0.0084911708     2     1     7     3
 0.0021295974     2     1     7     7
 0.0010627459     2     1     7     9
 -0.0047969310     2     1     7    12
 -0.0020332330     2     1     8     2
 0.0077963399     2     1     8     4
 0.0011753706     2     1     8     6
 0.0020648177     2     1     8     8
 0.0035001362     2     1     8    11
 -0.0010347339     2     1     8    13
 -0.0052053204     2     1     9     3
 0.0012137790     2     1     9     7
 0.0008697067     2     1     9     9
 -0.0025983371     2     1     9    12
 0.0169388729     2     1    10     5
 0.0072412698     2     1    10    10
 -0.0034291508     2     1    11     2
 0.0144182533     2     1    11     4
 0.0027234455     2     1    11     6
 0.0030085767     2     1    11     8
 0.0061662652     2     1    11    11
 -0.0021760336     2     1    11    13
 0.0199321013     2     1    12     3
 -0.0051993683     2     1    12     7
 -0.0024785040     2     1    12     9
 0.0110192880     2     1    12    12
 0.0014546436     2     1    13     2
 -0.0060920354     2     1    13     4
 -0.0011056952     2     1    13     6
 -0.0009441139     2     1    13     8
 -0.0024064594     2     1    13    11
 0.0007066183     2     1    13    13
 -0.0002232608     2     1    14    14
 0.9842453475     2     2     1     1
 0.0070304914     2     2     1     4
 0.0010854769     2     2     1     6
 0.0020332330     2     2     1     8
 0.0034291508     2     2     1    11
 -0.0014546436     2     2     1    13
 0.5285023420     2     2     3     3
 -0.0495036385     2     2     3     7
 -0.0081185693     2     2     3     9
 0.0800697690     2     2     3    12
 0.0070304914     2     2     4     1
 0.5506291621     2     2     4     4
 0.0263544677     2     2     4     6
 0.0523372920     2     2     4     8
 0.0627857315     2     2     4    11
 -0.0165719607     2     2     4    13
 0.5773162149     2     2     5     5
 0.0931738575     2     2     5    10
 0.0010854769     2     2     6     1
 0.0263544677     2     2     6     4
 0.2547920861     2     2     6     6
 -0.0067743006     2     2     6     8
 0.0674800436     2     2     6    11
 -0.0311003721     2     2     6    13
 -0.0495036385     2     2     7     3
 0.2241611718     2     2     7     7
 0.0222494596     2     2     7     9
 -0.0819053057     2     2     7    12
 0.0020332330     2     2     8     1
 0.0523372920     2     2     8     4
 -0.0067743006     2     2     8     6
 0.2737679271     2     2     8     8
 0.0014713990     2     2     8    11
 -0.0218292349     2     2     8    13
 -0.0081185693     2     2     9     3
 0.0222494596     2     2     9     7
 0.2970481749     2     2     9     9
 -0.0471040438     2     2     9    12
 0.0931738575     2     2    10     5
 0.3240951003     2     2    10    10
 0.0034291508     2     2    11     1
 0.0627857315     2     2    11     4