&FCI NORB= 15,NELEC= 10,MS2=0,
 ORBSYM=1,1,1,1,1,1,1,1,1,1,1,1,1,1,1
 ISYM=1,
&END
 0.9823747580     1     1     2     2
 0.0721136655     1     1     2     4
 -0.1816466708     1     1     2     6
 0.1469133827     1     1     2     9
 -0.0170720084     1     1     2    10
 0.1254263311     1     1     2    13
 0.8561446154     1     1     3     3
 -0.2267024577     1     1     3     7
 0.1507300381     1     1     3     8
 -0.3042713339     1     1     3    12
 0.0721136655     1     1     4     2
 0.9524054042     1     1     4     4
 0.1043896455     1     1     4     6
 -0.1564751204     1     1     4     9
 -0.3597853666     1     1     4    10
 0.0811307263     1     1     4    13
 1.0071952345     1     1     5     5
 0.4560023985     1     1     5    11
 -0.0181233740     1     1     5    15
 -0.1816466708     1     1     6     2
 0.1043896455     1     1     6     4
 0.3992071475     1     1     6     6
 -0.1606218835     1     1     6     9
 -0.0848108219     1     1     6    10
 -0.0589538860     1     1     6    13
 -0.2267024577     1     1     7     3
 0.3926043600     1     1     7     7
 -0.1545187913     1     1     7     8
 0.2065985466     1     1     7    12
 0.1507300381     1     1     8     3
 -0.1545187913     1     1     8     7
 0.5541102205     1     1     8     8
 -0.1088716835     1     1     8    12
 0.1469133827     1     1     9     2
 -0.1564751204     1     1     9     4
 -0.1606218835     1     1     9     6
 0.5747624510     1     1     9     9
 0.1222884656     1     1     9    10
 0.0005324575     1     1     9    13
 -0.0170720084     1     1    10     2
 -0.3597853666     1     1    10     4
 -0.0848108219     1     1    10     6
 0.1222884656     1     1    10     9
 0.7949267906     1     1    10    10
 -0.0480885976     1     1    10    13
 0.4560023985     1     1    11     5
 0.9487415389     1     1    11    11
 -0.0306868544     1     1    11    15
 -0.3042713339     1     1    12     3
 0.2065985466     1     1    12     7
 -0.1088716835     1     1    12     8
 0.7471638468     1     1    12    12
 0.1254263311     1     1    13     2
 0.0811307263     1     1    13     4
 -0.0589538860     1     1    13     6
 0.0005324575     1     1    13     9
 -0.0480885976     1     1    13    10
 0.5639419887     1     1    13    13
 0.5157287125     1     1    14    14
 -0.0181233740     1     1    15     5
 -0.0306868544     1     1    15    11
 0.5130532732     1     1    15    15
 -0.9823747580     1     2     2     1
 -0.0068431347     1     2     2     4
 -0.0026014226     1     2     2     6
 0.0044914393     1     2     2     9
 0.0089774022     1     2     2    10
 -0.0007807358     1     2     2    13
 0.0296931185     1     2     3     3
 -0.0165419801     1     2     3     7
 0.0165007064     1     2     3     8
 -0.0332759992     1     2     3    12
 -0.0721136655     1     2     4     1
 0.0353649162     1     2     4     4
 0.0095876276     1     2     4     6
 -0.0168913517     1     2     4     9
 -0.0358603824     1     2     4    10
 0.0049348577     1     2     4    13
 0.0410323636     1     2     5     5
 0.0478498007     1     2     5    11
 -0.0029038879     1     2     5    15
 0.1816466708     1     2     6     1
 0.0096246113     1     2     6     4
 0.0025916690     1     2     6     6
 -0.0049033442     1     2     6     9
 -0.0101749537     1     2     6    10
 0.0013340579     1     2     6    13
 -0.0131690154     1     2     7     3
 0.0073701678     1     2     7     7
 -0.0074401297     1     2     7     8
 0.0153136317     1     2     7    12
 0.0116206130     1     2     8     3
 -0.0064687207     1     2     8     7
 0.0061703215     1     2     8     8
 -0.0126830112     1     2     8    12
 -0.1469133827     1     2     9     1
 -0.0142580544     1     2     9     4
 -0.0039522256     1     2     9     6
 0.0067678292     1     2     9     9
 0.0157574632     1     2     9    10
 -0.0025867295     1     2     9    13
 0.0170720084     1     2    10     1
 -0.0239263232     1     2    10     4
 -0.0061462899     1     2    10     6
 0.0119441599     1     2    10     9
 0.0266194971     1     2    10    10
 -0.0052515309     1     2    10    13
 0.0317076005     1     2    11     5
 0.0404252571     1     2    11    11
 -0.0017077367     1     2    11    15
 -0.0204812324     1     2    12     3
 0.0118837208     1     2    12     7
 -0.0112972931     1     2    12     8
 0.0253272550     1     2    12    12
 -0.1254263311     1     2    13     1
 0.0027190384     1     2    13     4
 0.0006611270     1     2    13     6
 -0.0017546973     1     2    13     9
 -0.0045354229     1     2    13    10
 0.0012247595     1     2    13    13
 -0.0004196673     1     2    14    14
 -0.0009882812     1     2    15     5
 -0.0003547039     1     2    15    11
 0.0000206393     1     2    15    15
 -0.0031451513     1     3     2     7
 0.0046704542     1     3     2     8
 -0.0123803564     1     3     2    12
 -0.8561446154     1     3     3     1
 -0.0296931185     1     3     3     2
 -0.0102718834     1     3     3     4
 0.0047960974     1     3     3     6
 0.0007828580     1     3     3     9
 0.0050430860     1     3     3    10
 -0.0115319027     1     3     3    13
 0.0018134262     1     3     4     7
 -0.0060426624     1     3     4     8
 -0.0021908779     1     3     4    12
 -0.0059001090     1     3     5    14
 -0.0025039836     1     3     6     7
 -0.0003513729     1     3     6     8
 -0.0017771231     1     3     6    12
 0.2267024577     1     3     7     1
 0.0131690154     1     3     7     2
 0.0045221343     1     3     7     4
 -0.0061431234     1     3     7     6
 0.0033931969     1     3     7     9
 -0.0009976699     1     3     7    10
 0.0051824280     1     3     7    13
 -0.1507300381     1     3     8     1
 -0.0116206130     1     3     8     2
 -0.0036508026     1     3     8     4
 0.0048370867     1     3     8     6
 -0.0088715385     1     3     8     9
 -0.0033239148     1     3     8    10
 -0.0057184390     1     3     8    13
 0.0022566322     1     3     9     7
 -0.0048978542     1     3     9     8
 0.0054411414     1     3     9    12
 -0.0011596291     1     3    10     7
 0.0021752185     1     3    10     8
 -0.0041862426     1     3    10    12
 -0.0000639523     1     3    11    14
 0.3042713339     1     3    12     1
 0.0204812324     1     3    12     2
 0.0071682274     1     3    12     4
 -0.0081985670     1     3    12     6
 0.0059195052     1     3    12     9
 -0.0078505908     1     3    12    10
 0.0093730484     1     3    12    13
 -0.0008343593     1     3    13     7
 -0.0006667168     1     3    13     8
 -0.0037336988     1     3    13    12
 0.0011400751     1     3    14     5
 0.0083323874     1     3    14    11
 -0.0064933693     1     3    14    15
 -0.0061471749     1     3    15    14
 -0.0721136655     1     4     2     1
 0.0068431347     1     4     2     2
 -0.0001705628     1     4     2     6
 -0.0024659917     1     4     2     9
 -0.0114631352     1     4     2    10
 0.0021955624     1     4     2    13
 0.0102718834     1     4     3     3
 -0.0027118419     1     4     3     7
 -0.0024542703     1     4     3     8
 -0.0094804879     1     4     3    12
 -0.9524054042     1     4     4     1
 -0.0353649162     1     4     4     2
 0.0109119353     1     4     4     6
 -0.0128941091     1     4     4     9
 -0.0061096682     1     4     4    10
 0.0004614522     1     4     4    13
 0.0137952776     1     4     5     5
 0.0152242084     1     4     5    11
 0.0055380228     1     4     5    15
 -0.1043896455     1     4     6     1
 -0.0096246113     1     4     6     2
 0.0056405080     1     4     6     6
 -0.0052164139     1     4     6     9
 -0.0023363526     1     4     6    10
 -0.0011165287     1     4     6    13
 -0.0045221343     1     4     7     3
 0.0038893924     1     4     7     7
 -0.0017001169     1     4     7     8
 0.0067738168     1     4     7    12
 0.0036508026     1     4     8     3
 -0.0041228640     1     4     8     7
 0.0062264668     1     4     8     8
 -0.0108774246     1     4     8    12
 0.1564751204     1     4     9     1
 0.0142580544     1     4     9     2
 -0.0070442265     1     4     9     6
 0.0111142322     1     4     9     9
 -0.0001929932     1     4     9    10
 0.0035210400     1     4     9    13
 0.3597853666     1     4    10     1
 0.0239263232     1     4    10     2
 -0.0122163302     1     4    10     6
 0.0103985765     1     4    10     9
 0.0045810684     1     4    10    10
 0.0095844870     1     4    10    13
 0.0109146836     1     4    11     5
 0.0135421217     1     4    11    11
 -0.0000597254     1     4    11    15
 -0.0071682274     1     4    12     3
 0.0035343380     1     4    12     7
 -0.0028031599     1     4    12     8
 0.0055911247     1     4    12    12
 -0.0811307263     1     4    13     1
 -0.0027190384     1     4    13     2
 0.0003250395     1     4    13     6
 0.0018548723     1     4    13     9
 0.0091435049     1     4    13    10
 0.0004465538     1     4    13    13
 0.0061460129     1     4    14    14
 -0.0012557113     1     4    15     5
 -0.0084273568     1     4    15    11
 0.0042785383     1     4    15    15
 0.0155953013     1     5     2    11
 -0.0018020026     1     5     2    15
 -0.0069829579     1     5     3    14
 0.0042139005     1     5     4    11
 0.0066700340     1     5     4    15
 -1.0071952345     1     5     5     1
 -0.0410323636     1     5     5     2
 -0.0137952776     1     5     5     4
 0.0102868793     1     5     5     6
 -0.0124630886     1     5     5     9
 0.0093139868     1     5     5    10
 -0.0123649903     1     5     5    13
 0.0002442081     1     5     6    11
 0.0010923167     1     5     6    15
 0.0013900411     1     5     7    14
 -0.0006891942     1     5     8    14
 0.0048413661     1     5     9    11
 0.0002691545     1     5     9    15
 -0.0025532037     1     5    10    11
 -0.0016123747     1     5    10    15
 -0.4560023985     1     5    11     1
 -0.0317076005     1     5    11     2
 -0.0109146836     1     5    11     4
 0.0131274615     1     5    11     6
 -0.0108355186     1     5    11     9
 0.0077980471     1     5    11    10
 -0.0143833651     1     5    11    13
 0.0008706204     1     5    12    14
 0.0006044261     1     5    13    11
 -0.0008649837     1     5    13    15
 -0.0011400751     1     5    14     3
 -0.0018749949     1     5    14     7
 0.0023386067     1     5    14     8
 -0.0059211096     1     5    14    12
 0.0181233740     1     5    15     1
 0.0009882812     1     5    15     2
 0.0012557113     1     5    15     4
 -0.0014513798     1     5    15     6
 0.0042409456     1     5    15     9
 0.0046549959     1     5    15    10
 -0.0011877743     1     5    15    13
 0.1816466708     1     6     2     1
 0.0026014226     1     6     2     2
 0.0001705628     1     6     2     4
 -0.0009629532     1     6     2     9
 -0.0039196211     1     6     2    10
 0.0006334626     1     6     2    13
 -0.0047960974     1     6     3     3
 0.0036509768     1     6     3     7
 -0.0052159843     1     6     3     8
 0.0064812294     1     6     3    12
 -0.1043896455     1     6     4     1
 -0.0095876276     1     6     4     2
 -0.0109119353     1     6     4     4
 0.0018768603     1     6     4     9
 0.0099326316     1     6     4    10
 -0.0014793566     1     6     4    13
 -0.0102868793     1     6     5     5
 -0.0127480354     1     6     5    11
 0.0025649464     1     6     5    15
 -0.3992071475     1     6     6     1
 -0.0025916690     1     6     6     2
 -0.0056405080     1     6     6     4
 0.0013505455     1     6     6     9
 0.0051391920     1     6     6    10
 -0.0011354760     1     6     6    13
 0.0061431234     1     6     7     3
 -0.0029244251     1     6     7     7
 0.0034460471     1     6     7     8
 -0.0064011178     1     6     7    12
 -0.0048370867     1     6     8     3
 0.0020224087     1     6     8     7
 -0.0012184816     1     6     8     8
 0.0034077801     1     6     8    12
 0.1606218835     1     6     9     1
 0.0039522256     1     6     9     2
 0.0070442265     1     6     9     4
 -0.0002572184     1     6     9     9
 -0.0075640450     1     6     9    10
 0.0021403174     1     6     9    13
 0.0848108219     1     6    10     1
 0.0061462899     1     6    10     2
 0.0122163302     1     6    10     4
 -0.0032923343     1     6    10     9
 -0.0116839709     1     6    10    10
 0.0049379544     1     6    10    13
 -0.0131274615     1     6    11     5
 -0.0158756880     1     6    11    11
 0.0008199557     1     6    11    15
 0.0081985670     1     6    12     3
 -0.0047192875     1     6    12     7
 0.0047160634     1     6    12     8
 -0.0103719597     1     6    12    12
 0.0589538860     1     6    13     1
 -0.0006611270     1     6    13     2
 -0.0003250395     1     6    13     4
 0.0007944788     1     6    13     9
 0.0034005509     1     6    13    10
 -0.0000372710     1     6    13    13
 0.0019115923     1     6    14    14
 0.0014513798     1     6    15     5
 -0.0005251575     1     6    15    11
 0.0011844136     1     6    15    15
 0.0031451513     1     7     2     3
 -0.0009665795     1     7     2     8
 0.0032817783     1     7     2    12
 0.2267024577     1     7     3     1
 0.0165419801     1     7     3     2
 0.0027118419     1     7     3     4
 -0.0036509768     1     7     3     6
 0.0011338377     1     7     3     9
 0.0002099890     1     7     3    10
 0.0060476043     1     7     3    13
 -0.0018134262     1     7     4     3
 0.0024086376     1     7     4     8
 0.0031769269     1     7     4    12
 0.0033252240     1     7     5    14
 0.0025039836     1     7     6     3
 0.0014234713     1     7     6     8
 -0.0016685271     1     7     6    12
 -0.3926043600     1     7     7     1
 -0.0073701678     1     7     7     2
 -0.0038893924     1     7     7     4
 0.0029244251     1     7     7     6
 -0.0012290617     1     7     7     9
 0.0018600667     1     7     7    10
 -0.0030409890     1     7     7    13
 0.1545187913     1     7     8     1
 0.0064687207     1     7     8     2
 0.0041228640     1     7     8     4
 -0.0020224087     1     7     8     6
 0.0037160052     1     7     8     9
 -0.0002807541     1     7     8    10
 0.0034223117     1     7     8    13
 -0.0022566322     1     7     9     3
 0.0014723892     1     7     9     8
 -0.0005004736     1     7     9    12
 0.0011596291     1     7    10     3
 -0.0005870427     1     7    10     8
 0.0009928247     1     7    10    12
 0.0000384559     1     7    11    14
 -0.2065985466     1     7    12     1
 -0.0118837208     1     7    12     2
 -0.0035343380     1     7    12     4
 0.0047192875     1     7    12     6
 -0.0035873521     1     7    12     9
 0.0037513496     1     7    12    10
 -0.0051255875     1     7    12    13
 0.0008343593     1     7    13     3
 0.0007738125     1     7    13     8
 0.0011504899     1     7    13    12
 0.0018749949     1     7    14     5
 -0.0016986490     1     7    14    11
 0.0033626205     1     7    14    15
 0.0032958561     1     7    15    14
 -0.0046704542     1     8     2     3
 0.0009665795     1     8     2     7
 -0.0012749809     1     8     2    12
 -0.1507300381     1     8     3     1
 -0.0165007064     1     8     3     2
 0.0024542703     1     8     3     4
 0.0052159843     1     8     3     6
 -0.0039805628     1     8     3     9
 -0.0054451997     1     8     3    10
 -0.0051454594     1     8     3    13
 0.0060426624     1     8     4     3
 -0.0024086376     1     8     4     7
 -0.0079528161     1     8     4    12
 -0.0030869968     1     8     5    14
 0.0003513729     1     8     6     3
 -0.0014234713     1     8     6     7
 -0.0013249820     1     8     6    12
 0.1545187913     1     8     7     1
 0.0074401297     1     8     7     2
 0.0017001169     1     8     7     4
 -0.0034460471     1     8     7     6
 0.0022482279     1     8     7     9
 0.0003182154     1     8     7    10
 0.0026502046     1     8     7    13
 -0.5541102205     1     8     8     1
 -0.0061703215     1     8     8     2
 -0.0062264668     1     8     8     4
 0.0012184816     1     8     8     6
 -0.0023864291     1     8     8     9
 0.0024228910     1     8     8    10
 -0.0034566840     1     8     8    13
 0.0048978542     1     8     9     3
 -0.0014723892     1     8     9     7
 -0.0024072213     1     8     9    12
 -0.0021752185     1     8    10     3
 0.0005870427     1     8    10     7
 0.0003157269     1     8    10    12
 -0.0001081260     1     8    11    14
 0.1088716835     1     8    12     1
 0.0112972931     1     8    12     2
 0.0028031599     1     8    12     4
 -0.0047160634     1     8    12     6
 0.0037274279     1     8    12     9
 -0.0029280297     1     8    12    10
 0.0048653227     1     8    12    13
 0.0006667168     1     8    13     3
 -0.0007738125     1     8    13     7
 -0.0025969857     1     8    13    12
 -0.0023386067     1     8    14     5
 0.0009014053     1     8    14    11
 -0.0030498017     1     8    14    15
 -0.0030272269     1     8    15    14
 -0.1469133827     1     9     2     1
 -0.0044914393     1     9     2     2
 0.0024659917     1     9     2     4
 0.0009629532     1     9     2     6
 0.0037212845     1     9     2    10
 -0.0008205000     1     9     2    13
 -0.0007828580     1     9     3     3
 -0.0011338377     1     9     3     7
 0.0039805628     1     9     3     8
 -0.0005334187     1     9     3    12
 0.1564751204     1     9     4     1
 0.0168913517     1     9     4     2
 0.0128941091     1     9     4     4
 -0.0018768603     1     9     4     6
 -0.0106238277     1     9     4    10
 0.0017517668     1     9     4    13
 0.0124630886     1     9     5     5
 0.0154595624     1     9     5    11
 -0.0040179416     1     9     5    15
 0.1606218835     1     9     6     1
 0.0049033442     1     9     6     2
 0.0052164139     1     9     6     4
 -0.0013505455     1     9     6     6
 -0.0042704575     1     9     6    10
 0.0013464940     1     9     6    13
 -0.0033931969     1     9     7     3
 0.0012290617     1     9     7     7
 -0.0022482279     1     9     7     8
 0.0030815904     1     9     7    12
 0.0088715385     1     9     8     3
 -0.0037160052     1     9     8     7
 0.0023864291     1     9     8     8
 -0.0061334834     1     9     8    12
 -0.5747624510     1     9     9     1
 -0.0067678292     1     9     9     2
 -0.0111142322     1     9     9     4
 0.0002572184     1     9     9     6
 0.0116558401     1     9     9    10
 -0.0034538409     1     9     9    13
 -0.1222884656     1     9    10     1
 -0.0119441599     1     9    10     2
 -0.0103985765     1     9    10     4
 0.0032923343     1     9    10     6
 0.0090790007     1     9    10    10
 -0.0068456454     1     9    10    13
 0.0108355186     1     9    11     5
 0.0134288203     1     9    11    11
 -0.0008692414     1     9    11    15
 -0.0059195052     1     9    12     3
 0.0035873521     1     9    12     7
 -0.0037274279     1     9    12     8
 0.0085165750     1     9    12    12
 -0.0005324575     1     9    13     1
 0.0017546973     1     9    13     2
 -0.0018548723     1     9    13     4
 -0.0007944788     1     9    13     6
 -0.0031310742     1     9    13    10
 -0.0001896279     1     9    13    13
 -0.0031085268     1     9    14    14
 -0.0042409456     1     9    15     5
 -0.0011993196     1     9    15    11
 -0.0018308674     1     9    15    15
 0.0170720084     1    10     2     1
 -0.0089774022     1    10     2     2
 0.0114631352     1    10     2     4
 0.0039196211     1    10     2     6
 -0.0037212845     1    10     2     9
 -0.0007368330     1    10     2    13
 -0.0050430860     1    10     3     3
 -0.0002099890     1    10     3     7
 0.0054451997     1    10     3     8
 0.0036497967     1    10     3    12
 0.3597853666     1    10     4     1
 0.0358603824     1    10     4     2
 0.0061096682     1    10     4     4
 -0.0099326316     1    10     4     6
 0.0106238277     1    10     4     9
 0.0006071642     1    10     4    13
 -0.0093139868     1    10     5     5
 -0.0100862128     1    10     5    11
 -0.0063036087     1    10     5    15
 0.0848108219     1    10     6     1
 0.0101749537     1    10     6     2
 0.0023363526     1    10     6     4
 -0.0051391920     1    10     6     6
 0.0042704575     1    10     6     9
 0.0015374068     1    10     6    13
 0.0009976699     1    10     7     3
 -0.0018600667     1    10     7     7
 -0.0003182154     1    10     7     8
 -0.0027496412     1    10     7    12
 0.0033239148     1    10     8     3
 0.0002807541     1    10     8     7
 -0.0024228910     1    10     8     8
 0.0032220496     1    10     8    12
 -0.1222884656     1    10     9     1
 -0.0157574632     1    10     9     2
 0.0001929932     1    10     9     4
 0.0075640450     1    10     9     6
 -0.0116558401     1    10     9     9
 -0.0037158327     1    10     9    13
 -0.7949267906     1    10    10     1
 -0.0266194971     1    10    10     2
 -0.0045810684     1    10    10     4
 0.0116839709     1    10    10     6
 -0.0090790007     1    10    10     9
 -0.0109519183     1    10    10    13
 -0.0077980471     1    10    11     5
 -0.0094007226     1    10    11    11
 -0.0002349062     1    10    11    15
 0.0078505908     1    10    12     3
 -0.0037513496     1    10    12     7
 0.0029280297     1    10    12     8
 -0.0058668375     1    10    12    12
 0.0480885976     1    10    13     1
 0.0045354229     1    10    13     2
 -0.0091435049     1    10    13     4
 -0.0034005509     1    10    13     6
 0.0031310742     1    10    13     9
 -0.0013471659     1    10    13    13
 -0.0060672961     1    10    14    14
 -0.0046549959     1    10    15     5
 0.0018148295     1    10    15    11
 -0.0038631000     1    10    15    15
 -0.0155953013     1    11     2     5
 -0.0013003500     1    11     2    15
 -0.0081319667     1    11     3    14
 -0.0042139005     1    11     4     5
 0.0080734267     1    11     4    15
 -0.4560023985     1    11     5     1
 -0.0478498007     1    11     5     2
 -0.0152242084     1    11     5     4
 0.0127480354     1    11     5     6
 -0.0154595624     1    11     5     9
 0.0100862128     1    11     5    10
 -0.0148487660     1    11     5    13
 -0.0002442081     1    11     6     5
 0.0013554060     1    11     6    15
 0.0017507613     1    11     7    14
 -0.0010346803     1    11     8    14
 -0.0048413661     1    11     9     5
 0.0003128483     1    11     9    15
 0.0025532037     1    11    10     5
 -0.0020506959     1    11    10    15
 -0.9487415389     1    11    11     1
 -0.0404252571     1    11    11     2
 -0.0135421217     1    11    11     4
 0.0158756880     1    11    11     6
 -0.0134288203     1    11    11     9
 0.0094007226     1    11    11    10
 -0.0175425948     1    11    11    13
 0.0010779454     1    11    12    14
 -0.0006044261     1    11    13     5
 -0.0009859776     1    11    13    15
 -0.0083323874     1    11    14     3
 0.0016986490     1    11    14     7
 -0.0009014053     1    11    14     8
 0.0008994894     1    11    14    12
 0.0306868544     1    11    15     1
 0.0003547039     1    11    15     2
 0.0084273568     1    11    15     4
 0.0005251575     1    11    15     6
 0.0011993196     1    11    15     9
 -0.0018148295     1    11    15    10
 -0.0003639426     1    11    15    13
 0.0123803564     1    12     2     3
 -0.0032817783     1    12     2     7
 0.0012749809     1    12     2     8
 0.3042713339     1    12     3     1
 0.0332759992     1    12     3     2
 0.0094804879     1    12     3     4
 -0.0064812294     1    12     3     6
 0.0005334187     1    12     3     9
 -0.0036497967     1    12     3    10
 0.0131569772     1    12     3    13
 0.0021908779     1    12     4     3
 -0.0031769269     1    12     4     7
 0.0079528161     1    12     4     8
 0.0068512491     1    12     5    14
 0.0017771231     1    12     6     3
 0.0016685271     1    12     6     7
 0.0013249820     1    12     6     8
 -0.2065985466     1    12     7     1
 -0.0153136317     1    12     7     2
 -0.0067738168     1    12     7     4
 0.0064011178     1    12     7     6
 -0.0030815904     1    12     7     9
 0.0027496412     1    12     7    10
 -0.0062952477     1    12     7    13
 0.1088716835     1    12     8     1
 0.0126830112     1    12     8     2
 0.0108774246     1    12     8     4
 -0.0034077801     1    12     8     6
 0.0061334834     1    12     8     9
 -0.0032220496     1    12     8    10
 0.0074714708     1    12     8    13
 -0.0054411414     1    12     9     3
 0.0005004736     1    12     9     7
 0.0024072213     1    12     9     8
 0.0041862426     1    12    10     3
 -0.0009928247     1    12    10     7
 -0.0003157269     1    12    10     8
 0.0001963769     1    12    11    14
 -0.7471638468     1    12    12     1
 -0.0253272550     1    12    12     2
 -0.0055911247     1    12    12     4
 0.0103719597     1    12    12     6
 -0.0085165750     1    12    12     9
 0.0058668375     1    12    12    10
 -0.0105452050     1    12    12    13
 0.0037336988     1    12    13     3
 -0.0011504899     1    12    13     7
 0.0025969857     1    12    13     8
 0.0059211096     1    12    14     5
 -0.0008994894     1    12    14    11
 0.0065810584     1    12    14    15
 0.0065395543     1    12    15    14
 -0.1254263311     1    13     2     1
 0.0007807358     1    13     2     2
 -0.0021955624     1    13     2     4
 -0.0006334626     1    13     2     6
 0.0008205000     1    13     2     9
 0.0007368330     1    13     2    10
 0.0115319027     1    13     3     3
 -0.0060476043     1    13     3     7
 0.0051454594     1    13     3     8
 -0.0131569772     1    13     3    12
 -0.0811307263     1    13     4     1
 -0.0049348577     1    13     4     2
 -0.0004614522     1    13     4     4
 0.0014793566     1    13     4     6
 -0.0017517668     1    13     4     9
 -0.0006071642     1    13     4    10
 0.0123649903     1    13     5     5
 0.0148487660     1    13     5    11
 0.0003260543     1    13     5    15
 0.0589538860     1    13     6     1
 -0.0013340579     1    13     6     2
 0.0011165287     1    13     6     4
 0.0011354760     1    13     6     6
 -0.0013464940     1    13     6     9
 -0.0015374068     1    13     6    10
 -0.0051824280     1    13     7     3
 0.0030409890     1    13     7     7
 -0.0026502046     1    13     7     8
 0.0062952477     1    13     7    12
 0.0057184390     1    13     8     3
 -0.0034223117     1    13     8     7
 0.0034566840     1    13     8     8
 -0.0074714708     1    13     8    12
 -0.0005324575     1    13     9     1
 0.0025867295     1    13     9     2
 -0.0035210400     1    13     9     4
 -0.0021403174     1    13     9     6
 0.0034538409     1    13     9     9
 0.0037158327     1    13     9    10
 0.0480885976     1    13    10     1
 0.0052515309     1    13    10     2
 -0.0095844870     1    13    10     4
 -0.0049379544     1    13    10     6
 0.0068456454     1    13    10     9
 0.0109519183     1    13    10    10
 0.0143833651     1    13    11     5
 0.0175425948     1    13    11    11
 -0.0006232383     1    13    11    15
 -0.0093730484     1    13    12     3
 0.0051255875     1    13    12     7
 -0.0048653227     1    13    12     8
 0.0105452050     1    13    12    12
 -0.5639419887     1    13    13     1
 -0.0012247595     1    13    13     2
 -0.0004465538     1    13    13     4
 0.0000372710     1    13    13     6
 0.0001896279     1    13    13     9
 0.0013471659     1    13    13    10
 0.0008010281     1    13    14    14
 0.0011877743     1    13    15     5
 0.0003639426     1    13    15    11
 0.0004340773     1    13    15    15
 0.0069829579     1    14     3     5
 0.0081319667     1    14     3    11
 -0.0003681757     1    14     3    15
 0.0059001090     1    14     5     3
 -0.0033252240     1    14     5     7
 0.0030869968     1    14     5     8
 -0.0068512491     1    14     5    12
 -0.0013900411     1    14     7     5
 -0.0017507613     1    14     7    11
 0.0000679045     1    14     7    15
 0.0006891942     1    14     8     5
 0.0010346803     1    14     8    11
 -0.0000225003     1    14     8    15
 0.0000639523     1    14    11     3
 -0.0000384559     1    14    11     7
 0.0001081260     1    14    11     8
 -0.0001963769     1    14    11    12
 -0.0008706204     1    14    12     5
 -0.0010779454     1    14    12    11
 0.0000428102     1    14    12    15
 -0.5157287125     1    14    14     1
 0.0004196673     1    14    14     2
 -0.0061460129     1    14    14     4
 -0.0019115923     1    14    14     6
 0.0031085268     1    14    14     9
 0.0060672961     1    14    14    10
 -0.0008010281     1    14    14    13
 0.0061471749     1    14    15     3
 -0.0032958561     1    14    15     7
 0.0030272269     1    14    15     8
 -0.0065395543     1    14    15    12
 0.0018020026     1    15     2     5
 0.0013003500     1    15     2    11
 0.0003681757     1    15     3    14
 -0.0066700340     1    15     4     5
 -0.0080734267     1    15     4    11
 0.0181233740     1    15     5     1
 0.0029038879     1    15     5     2
 -0.0055380228     1    15     5     4
 -0.0025649464     1    15     5     6
 0.0040179416     1    15     5     9
 0.0063036087     1    15     5    10
 -0.0003260543     1    15     5    13
 -0.0010923167     1    15     6     5
 -0.0013554060     1    15     6    11
 -0.0000679045     1    15     7    14
 0.0000225003     1    15     8    14
 -0.0002691545     1    15     9     5
 -0.0003128483     1    15     9    11
 0.0016123747     1    15    10     5
 0.0020506959     1    15    10    11
 0.0306868544     1    15    11     1
 0.0017077367     1    15    11     2