&FCI NORB= 14,NELEC= 10,MS2=0,
 ORBSYM=1,1,1,1,1,1,1,1,1,1,1,1,1,1
 ISYM=1,
&END
 0.9890444848     1     1     2     2
 -0.0162840641     1     1     2     3
 0.0754398435     1     1     2     4
 -0.1299271297     1     1     2     6
 0.0444420075     1     1     2     7
 0.0573054332     1     1     2     8
 0.0705692127     1     1     2     9
 0.0278322789     1     1     2    10
 0.0415236431     1     1     2    12
 -0.0756156137     1     1     2    13
 -0.0162840641     1     1     3     2
 0.8456056892     1     1     3     3
 -0.0566854624     1     1     3     4
 0.0642409642     1     1     3     6
 0.1580197688     1     1     3     7
 -0.0823133294     1     1     3     8
 0.0230778417     1     1     3     9
 0.1145424179     1     1     3    10
 -0.1025837971     1     1     3    12
 -0.1747335028     1     1     3    13
 0.0754398435     1     1     4     2
 -0.0566854624     1     1     4     3
 0.8965622954     1     1     4     4
 0.1353168075     1     1     4     6
 0.0379860534     1     1     4     7
 -0.0961990584     1     1     4     8
 0.0448480129     1     1     4     9
 -0.2145002706     1     1     4    10
 -0.0727168039     1     1     4    12
 -0.0469078133     1     1     4    13
 1.0026839899     1     1     5     5
 0.2675973684     1     1     5    11
 -0.1372612144     1     1     5    14
 -0.1299271297     1     1     6     2
 0.0642409642     1     1     6     3
 0.1353168075     1     1     6     4
 0.3710168336     1     1     6     6
 0.0225695388     1     1     6     7
 -0.1294693109     1     1     6     8
 -0.0254785137     1     1     6     9
 -0.0759284521     1     1     6    10
 -0.0830475993     1     1     6    12
 -0.0143965281     1     1     6    13
 0.0444420075     1     1     7     2
 0.1580197688     1     1     7     3
 0.0379860534     1     1     7     4
 0.0225695388     1     1     7     6
 0.3075360250     1     1     7     7
 -0.0753691277     1     1     7     8
 0.0473361597     1     1     7     9
 0.0516890930     1     1     7    10
 -0.0633112560     1     1     7    12
 -0.1344774770     1     1     7    13
 0.0573054332     1     1     8     2
 -0.0823133294     1     1     8     3
 -0.0961990584     1     1     8     4
 -0.1294693109     1     1     8     6
 -0.0753691277     1     1     8     7
 0.3909780587     1     1     8     8
 -0.0113747032     1     1     8     9
 0.0254797143     1     1     8    10
 0.0462221106     1     1     8    12
 0.0452713466     1     1     8    13
 0.0705692127     1     1     9     2
 0.0230778417     1     1     9     3
 0.0448480129     1     1     9     4
 -0.0254785137     1     1     9     6
 0.0473361597     1     1     9     7
 -0.0113747032     1     1     9     8
 0.3717798138     1     1     9     9
 0.0142779696     1     1     9    10
 -0.0167240215     1     1     9    12
 -0.0436948868     1     1     9    13
 0.0278322789     1     1    10     2
 0.1145424179     1     1    10     3
 -0.2145002706     1     1    10     4
 -0.0759284521     1     1    10     6
 0.0516890930     1     1    10     7
 0.0254797143     1     1    10     8
 0.0142779696     1     1    10     9
 0.4705122380     1     1    10    10
 0.0223112432     1     1    10    12
 -0.0410984611     1     1    10    13
 0.2675973684     1     1    11     5
 0.4957615167     1     1    11    11
 -0.0849202439     1     1    11    14
 0.0415236431     1     1    12     2
 -0.1025837971     1     1    12     3
 -0.0727168039     1     1    12     4
 -0.0830475993     1     1    12     6
 -0.0633112560     1     1    12     7
 0.0462221106     1     1    12     8
 -0.0167240215     1     1    12     9
 0.0223112432     1     1    12    10
 0.3931293640     1     1    12    12
 0.0458594664     1     1    12    13
 -0.0756156137     1     1    13     2
 -0.1747335028     1     1    13     3
 -0.0469078133     1     1    13     4
 -0.0143965281     1     1    13     6
 -0.1344774770     1     1    13     7
 0.0452713466     1     1    13     8
 -0.0436948868     1     1    13     9
 -0.0410984611     1     1    13    10
 0.0458594664     1     1    13    12
 0.4406170245     1     1    13    13
 -0.1372612144     1     1    14     5
 -0.0849202439     1     1    14    11
 0.3939497586     1     1    14    14
 -0.9890444848     1     2     2     1
 -0.0038075933     1     2     2     3
 0.0040678974     1     2     2     4
 0.0007591501     1     2     2     6
 -0.0012695293     1     2     2     7
 -0.0001575186     1     2     2     8
 -0.0001198153     1     2     2     9
 -0.0039087271     1     2     2    10
 0.0002120169     1     2     2    12
 0.0019686858     1     2     2    13
 0.0162840641     1     2     3     1
 -0.0302335657     1     2     3     3
 0.0035560905     1     2     3     4
 -0.0037347973     1     2     3     6
 -0.0115336029     1     2     3     7
 0.0072134008     1     2     3     8
 -0.0037754198     1     2     3     9
 -0.0104608318     1     2     3    10
 0.0085428960     1     2     3    12
 0.0160569800     1     2     3    13
 -0.0754398435     1     2     4     1
 0.0031228631     1     2     4     3
 -0.0333522959     1     2     4     4
 -0.0105941260     1     2     4     6
 -0.0019606909     1     2     4     7
 0.0088103967     1     2     4     8
 -0.0020218883     1     2     4     9
 0.0171820108     1     2     4    10
 0.0074042377     1     2     4    12
 0.0023617663     1     2     4    13
 -0.0420473078     1     2     5     5
 -0.0221364433     1     2     5    11
 0.0119468990     1     2     5    14
 0.1299271297     1     2     6     1
 -0.0024094259     1     2     6     3
 -0.0092660040     1     2     6     4
 -0.0045300538     1     2     6     6
 -0.0023841554     1     2     6     7
 0.0043278706     1     2     6     8
 -0.0010199631     1     2     6     9
 0.0046184396     1     2     6    10
 0.0039041340     1     2     6    12
 0.0030311819     1     2     6    13
 -0.0444420075     1     2     7     1
 -0.0089962220     1     2     7     3
 -0.0012917227     1     2     7     4
 -0.0024854646     1     2     7     6
 -0.0043665328     1     2     7     7
 0.0035170502     1     2     7     8
 -0.0015046784     1     2     7     9
 -0.0022319813     1     2     7    10
 0.0038215445     1     2     7    12
 0.0062474175     1     2     7    13
 -0.0573054332     1     2     8     1
 0.0049522552     1     2     8     3
 0.0071372434     1     2     8     4
 0.0041279573     1     2     8     6
 0.0032512963     1     2     8     7
 -0.0044411023     1     2     8     8
 0.0014665605     1     2     8     9
 -0.0027158039     1     2     8    10
 -0.0041357295     1     2     8    12
 -0.0043402663     1     2     8    13
 -0.0705692127     1     2     9     1
 -0.0027874592     1     2     9     3
 -0.0011526802     1     2     9     4
 -0.0008013701     1     2     9     6
 -0.0013748188     1     2     9     7
 0.0013264839     1     2     9     8
 -0.0006265912     1     2     9     9
 0.0000566174     1     2     9    10
 0.0010805090     1     2     9    12
 0.0017326100     1     2     9    13
 -0.0278322789     1     2    10     1
 -0.0075591509     1     2    10     3
 0.0132530403     1     2    10     4
 0.0036861438     1     2    10     6
 -0.0018886434     1     2    10     7
 -0.0022837556     1     2    10     8
 0.0003454298     1     2    10     9
 -0.0107297745     1     2    10    10
 -0.0009212604     1     2    10    12
 0.0026765363     1     2    10    13
 -0.0164417610     1     2    11     5
 -0.0110165915     1     2    11    11
 0.0057646786     1     2    11    14
 -0.0415236431     1     2    12     1
 0.0058027213     1     2    12     3
 0.0052606739     1     2    12     4
 0.0034338215     1     2    12     6
 0.0033958865     1     2    12     7
 -0.0038546239     1     2    12     8
 0.0011205493     1     2    12     9
 -0.0008413845     1     2    12    10
 -0.0038198187     1     2    12    12
 -0.0046744923     1     2    12    13
 0.0756156137     1     2    13     1
 0.0114371721     1     2    13     3
 0.0013287791     1     2    13     4
 0.0029597157     1     2    13     6
 0.0057144048     1     2    13     7
 -0.0043370833     1     2    13     8
 0.0017167350     1     2    13     9
 0.0028818126     1     2    13    10
 -0.0048376480     1     2    13    12
 -0.0079428689     1     2    13    13
 0.0086065023     1     2    14     5
 0.0055708607     1     2    14    11
 -0.0028232879     1     2    14    14
 0.0162840641     1     3     2     1
 0.0038075933     1     3     2     2
 0.0004348760     1     3     2     4
 -0.0011204523     1     3     2     6
 -0.0017796370     1     3     2     7
 0.0018428306     1     3     2     8
 -0.0007710167     1     3     2     9
 -0.0022737898     1     3     2    10
 0.0022237737     1     3     2    12
 0.0036376389     1     3     2    13
 -0.8456056892     1     3     3     1
 0.0302335657     1     3     3     2
 0.0071536482     1     3     3     4
 -0.0036146651     1     3     3     6
 0.0023187135     1     3     3     7
 0.0005424596     1     3     3     8
 0.0006012094     1     3     3     9
 -0.0016631684     1     3     3    10
 0.0017375336     1     3     3    12
 -0.0046023713     1     3     3    13
 0.0566854624     1     3     4     1
 -0.0031228631     1     3     4     2
 0.0038714234     1     3     4     4
 0.0031095137     1     3     4     6
 0.0012950584     1     3     4     7
 -0.0044344167     1     3     4     8
 0.0011689535     1     3     4     9
 -0.0013568636     1     3     4    10
 -0.0002584191     1     3     4    12
 -0.0012427559     1     3     4    13
 0.0059425271     1     3     5     5
 0.0039340744     1     3     5    11
 0.0009908157     1     3     5    14
 -0.0642409642     1     3     6     1
 0.0024094259     1     3     6     2
 0.0019837916     1     3     6     4
 -0.0005646424     1     3     6     6
 -0.0011671609     1     3     6     7
 -0.0002581122     1     3     6     8
 0.0007319424     1     3     6     9
 -0.0011051808     1     3     6    10
 0.0010136420     1     3     6    12
 0.0006178314     1     3     6    13
 -0.1580197688     1     3     7     1
 0.0089962220     1     3     7     2
 0.0026241141     1     3     7     4
 -0.0032367708     1     3     7     6
 0.0022364673     1     3     7     7
 0.0007968067     1     3     7     8
 0.0015692609     1     3     7     9
 0.0007097140     1     3     7    10
 0.0001934990     1     3     7    12
 -0.0024599296     1     3     7    13
 0.0823133294     1     3     8     1
 -0.0049522552     1     3     8     2
 -0.0023258468     1     3     8     4
 0.0014070659     1     3     8     6
 -0.0000692703     1     3     8     7
 -0.0019812338     1     3     8     8
 -0.0003087609     1     3     8     9
 -0.0006842128     1     3     8    10
 -0.0017112084     1     3     8    12
 0.0004180925     1     3     8    13
 -0.0230778417     1     3     9     1
 0.0027874592     1     3     9     2
 0.0006621261     1     3     9     4
 -0.0002273613     1     3     9     6
 0.0016529628     1     3     9     7
 0.0001192003     1     3     9     8
 0.0008476951     1     3     9     9
 0.0030260667     1     3     9    10
 -0.0009273024     1     3     9    12
 -0.0039787145     1     3     9    13
 -0.1145424179     1     3    10     1
 0.0075591509     1     3    10     2
 0.0001600731     1     3    10     4
 -0.0031972350     1     3    10     6
 0.0012946072     1     3    10     7
 0.0012542331     1     3    10     8
 0.0025472476     1     3    10     9
 0.0024706981     1     3    10    10
 0.0017572572     1     3    10    12
 -0.0020075710     1     3    10    13
 0.0021184481     1     3    11     5
 -0.0000194863     1     3    11    11
 -0.0012780698     1     3    11    14
 0.1025837971     1     3    12     1
 -0.0058027213     1     3    12     2
 -0.0022086686     1     3    12     4
 0.0013799361     1     3    12     6
 -0.0015602293     1     3    12     7
 -0.0004435109     1     3    12     8
 -0.0016751308     1     3    12     9
 0.0015591380     1     3    12    10
 0.0004365873     1     3    12    12
 0.0022648859     1     3    12    13
 0.1747335028     1     3    13     1
 -0.0114371721     1     3    13     2
 -0.0033853752     1     3    13     4
 0.0036673149     1     3    13     6
 -0.0019406641     1     3    13     7
 -0.0011257693     1     3    13     8
 -0.0037074165     1     3    13     9
 -0.0006455661     1     3    13    10
 -0.0005509220     1     3    13    12
 0.0037279776     1     3    13    13
 -0.0015825106     1     3    14     5
 -0.0032955539     1     3    14    11
 0.0022046618     1     3    14    14
 -0.0754398435     1     4     2     1
 -0.0040678974     1     4     2     2
 -0.0004348760     1     4     2     3
 -0.0005396647     1     4     2     6
 -0.0005546280     1     4     2     7
 0.0010679101     1     4     2     8
 -0.0007532862     1     4     2     9
 0.0028019576     1     4     2    10
 0.0016861336     1     4     2    12
 0.0008968477     1     4     2    13
 0.0566854624     1     4     3     1
 -0.0035560905     1     4     3     2
 -0.0071536482     1     4     3     3
 0.0009918565     1     4     3     6
 -0.0014883698     1     4     3     7
 -0.0019745705     1     4     3     8
 0.0005329669     1     4     3     9
 -0.0014938136     1     4     3    10
 0.0021016001     1     4     3    12
 0.0024116389     1     4     3    13
 -0.8965622954     1     4     4     1
 0.0333522959     1     4     4     2
 -0.0038714234     1     4     4     3
 -0.0079747623     1     4     4     6
 0.0016364209     1     4     4     7
 0.0040505524     1     4     4     8
 0.0052022057     1     4     4     9
 0.0040800806     1     4     4    10
 0.0014260339     1     4     4    12
 -0.0016586811     1     4     4    13
 -0.0106893552     1     4     5     5
 -0.0047191845     1     4     5    11
 0.0033937955     1     4     5    14
 -0.1353168075     1     4     6     1
 0.0092660040     1     4     6     2
 -0.0019837916     1     4     6     3
 -0.0049777629     1     4     6     6
 -0.0003941336     1     4     6     7
 0.0028032861     1     4     6     8
 0.0012556888     1     4     6     9
 0.0028064160     1     4     6    10
 0.0021902433     1     4     6    12
 0.0003147589     1     4     6    13
 -0.0379860534     1     4     7     1
 0.0012917227     1     4     7     2
 -0.0026241141     1     4     7     3
 -0.0011500213     1     4     7     6
 -0.0017882482     1     4     7     7
 0.0011118919     1     4     7     8
 0.0001099613     1     4     7     9
 -0.0011621509     1     4     7    10
 0.0011455123     1     4     7    12
 0.0015239789     1     4     7    13
 0.0961990584     1     4     8     1
 -0.0071372434     1     4     8     2
 0.0023258468     1     4     8     3
 0.0038607785     1     4     8     6
 0.0013288154     1     4     8     7
 -0.0044676314     1     4     8     8
 -0.0017316968     1     4     8     9
 -0.0006830645     1     4     8    10
 -0.0030366342     1     4     8    12
 -0.0017791639     1     4     8    13
 -0.0448480129     1     4     9     1
 0.0011526802     1     4     9     2
 -0.0006621261     1     4     9     3
 -0.0010367296     1     4     9     6
 -0.0005528488     1     4     9     7
 -0.0000244925     1     4     9     8
 -0.0010206460     1     4     9     9
 -0.0004527195     1     4     9    10
 0.0021855186     1     4     9    12
 0.0010143225     1     4     9    13
 0.2145002706     1     4    10     1
 -0.0132530403     1     4    10     2
 -0.0001600731     1     4    10     3
 0.0057662182     1     4    10     6
 -0.0023407056     1     4    10     7
 -0.0022570603     1     4    10     8
 -0.0031518206     1     4    10     9
 -0.0016864280     1     4    10    10
 -0.0017427873     1     4    10    12
 0.0044840970     1     4    10    13
 -0.0047198667     1     4    11     5
 -0.0043777810     1     4    11    11
 0.0008183377     1     4    11    14
 0.0727168039     1     4    12     1
 -0.0052606739     1     4    12     2
 0.0022086686     1     4    12     3
 0.0031026176     1     4    12     6
 0.0000147782     1     4    12     7
 -0.0024302234     1     4    12     8
 0.0003873865     1     4    12     9
 -0.0025548242     1     4    12    10
 -0.0022406919     1     4    12    12
 0.0007981099     1     4    12    13
 0.0469078133     1     4    13     1
 -0.0013287791     1     4    13     2
 0.0033853752     1     4    13     3
 0.0009545229     1     4    13     6
 0.0012615603     1     4    13     7
 -0.0010832667     1     4    13     8
 0.0000233417     1     4    13     9
 0.0030901153     1     4    13    10
 -0.0004320865     1     4    13    12
 -0.0015832157     1     4    13    13
 0.0021669830     1     4    14     5
 0.0001127243     1     4    14    11
 -0.0021844092     1     4    14    14
 -0.0043214550     1     5     2    11
 0.0026260529     1     5     2    14
 0.0016951789     1     5     3    11
 0.0027323543     1     5     3    14
 0.0003368837     1     5     4    11
 0.0011020588     1     5     4    14
 -1.0026839899     1     5     5     1
 0.0420473078     1     5     5     2
 -0.0059425271     1     5     5     3
 0.0106893552     1     5     5     4
 -0.0086238285     1     5     5     6
 0.0019441311     1     5     5     7
 0.0057108691     1     5     5     8
 0.0077027429     1     5     5     9
 -0.0009069549     1     5     5    10
 0.0043177330     1     5     5    12
 -0.0060254586     1     5     5    13
 -0.0014138726     1     5     6    11
 0.0009059834     1     5     6    14
 0.0006720922     1     5     7    11
 -0.0006075257     1     5     7    14
 -0.0010880385     1     5     8    11
 0.0001087081     1     5     8    14
 -0.0009121140     1     5     9    11
 0.0007809550     1     5     9    14
 0.0000236576     1     5    10    11
 0.0001254287     1     5    10    14
 -0.2675973684     1     5    11     1
 0.0164417610     1     5    11     2
 -0.0021184481     1     5    11     3
 0.0047198667     1     5    11     4
 -0.0065462463     1     5    11     6
 0.0012875618     1     5    11     7
 0.0025437266     1     5    11     8
 0.0030880780     1     5    11     9
 -0.0001442730     1     5    11    10
 0.0024582765     1     5    11    12
 -0.0022031223     1     5    11    13
 -0.0003830805     1     5    12    11
 0.0001527657     1     5    12    14
 0.0004693116     1     5    13    11
 -0.0002501825     1     5    13    14
 0.1372612144     1     5    14     1
 -0.0086065023     1     5    14     2
 0.0015825106     1     5    14     3
 -0.0021669830     1     5    14     4
 0.0028280133     1     5    14     6
 -0.0023058487     1     5    14     7
 -0.0007044724     1     5    14     8
 -0.0017968477     1     5    14     9
 -0.0002494659     1     5    14    10
 -0.0001372749     1     5    14    12
 0.0030699157     1     5    14    13
 0.1299271297     1     6     2     1
 -0.0007591501     1     6     2     2
 0.0011204523     1     6     2     3
 0.0005396647     1     6     2     4
 0.0001011008     1     6     2     7
 0.0002014628     1     6     2     8
 -0.0002101257     1     6     2     9
 0.0009480555     1     6     2    10
 0.0004632527     1     6     2    12
 0.0000425477     1     6     2    13
 -0.0642409642     1     6     3     1
 0.0037347973     1     6     3     2
 0.0036146651     1     6     3     3
 -0.0009918565     1     6     3     4
 0.0020809131     1     6     3     7
 -0.0016964476     1     6     3     8
 0.0009769585     1     6     3     9
 0.0021185259     1     6     3    10
 -0.0003681955     1     6     3    12
 -0.0030870298     1     6     3    13
 -0.1353168075     1     6     4     1
 0.0105941260     1     6     4     2
 -0.0031095137     1     6     4     3
 0.0079747623     1     6     4     4
 0.0007622842     1     6     4     7
 -0.0010985733     1     6     4     8
 0.0023207141     1     6     4     9
 -0.0030370777     1     6     4    10
 -0.0009301549     1     6     4    12
 -0.0006467150     1     6     4    13
 0.0086238285     1     6     5     5
 0.0051360229     1     6     5    11
 -0.0019050109     1     6     5    14
 -0.3710168336     1     6     6     1
 0.0045300538     1     6     6     2
 0.0005646424     1     6     6     3
 0.0049777629     1     6     6     4
 0.0007729840     1     6     6     7
 -0.0008763999     1     6     6     8
 0.0011227638     1     6     6     9
 -0.0011699951     1     6     6    10
 -0.0007102716     1     6     6    12
 -0.0012588488     1     6     6    13
 -0.0225695388     1     6     7     1
 0.0024854646     1     6     7     2
 0.0032367708     1     6     7     3
 0.0011500213     1     6     7     4
 0.0016037612     1     6     7     7
 -0.0008815280     1     6     7     8
 0.0009431052     1     6     7     9
 0.0006577098     1     6     7    10
 -0.0011254676     1     6     7    12
 -0.0024972311     1     6     7    13
 0.1294693109     1     6     8     1
 -0.0041279573     1     6     8     2
 -0.0014070659     1     6     8     3
 -0.0038607785     1     6     8     4
 -0.0009129238     1     6     8     7
 -0.0001541904     1     6     8     8
 -0.0012937832     1     6     8     9
 0.0007635065     1     6     8    10
 0.0003209199     1     6     8    12
 0.0013196615     1     6     8    13
 0.0254785137     1     6     9     1
 0.0008013701     1     6     9     2
 0.0002273613     1     6     9     3
 0.0010367296     1     6     9     4
 0.0003603700     1     6     9     7
 -0.0004338294     1     6     9     8
 -0.0001000975     1     6     9     9
 -0.0000636253     1     6     9    10
 0.0002641917     1     6     9    12
 -0.0006538034     1     6     9    13
 0.0759284521     1     6    10     1
 -0.0036861438     1     6    10     2
 0.0031972350     1     6    10     3
 -0.0057662182     1     6    10     4
 0.0001273198     1     6    10     7
 0.0003307392     1     6    10     8
 -0.0007841809     1     6    10     9
 0.0039271212     1     6    10    10
 0.0000785591     1     6    10    12
 0.0001827607     1     6    10    13
 0.0065462463     1     6    11     5
 0.0030743959     1     6    11    11
 -0.0023566465     1     6    11    14
 0.0830475993     1     6    12     1
 -0.0034338215     1     6    12     2
 -0.0013799361     1     6    12     3
 -0.0031026176     1     6    12     4
 -0.0015119028     1     6    12     7
 0.0005643366     1     6    12     8
 -0.0006490540     1     6    12     9
 0.0000080146     1     6    12    10
 0.0007033495     1     6    12    12
 0.0024055240     1     6    12    13
 0.0143965281     1     6    13     1
 -0.0029597157     1     6    13     2
 -0.0036673149     1     6    13     3
 -0.0009545229     1     6    13     4
 -0.0020639009     1     6    13     7
 0.0009671917     1     6    13     8
 -0.0013046568     1     6    13     9
 -0.0003523969     1     6    13    10
 0.0015101749     1     6    13    12
 0.0031019247     1     6    13    13
 -0.0028280133     1     6    14     5
 -0.0024505524     1     6    14    11
 0.0005803909     1     6    14    14
 -0.0444420075     1     7     2     1
 0.0012695293     1     7     2     2
 0.0017796370     1     7     2     3
 0.0005546280     1     7     2     4
 -0.0001011008     1     7     2     6
 0.0002552437     1     7     2     8
 -0.0001303452     1     7     2     9
 -0.0003498133     1     7     2    10
 0.0004052854     1     7     2    12
 0.0005094991     1     7     2    13
 -0.1580197688     1     7     3     1
 0.0115336029     1     7     3     2
 -0.0023187135     1     7     3     3
 0.0014883698     1     7     3     4
 -0.0020809131     1     7     3     6
 0.0008608003     1     7     3     8
 -0.0000923994     1     7     3     9
 -0.0006342227     1     7     3    10
 0.0017766322     1     7     3    12
 -0.0005054431     1     7     3    13
 -0.0379860534     1     7     4     1
 0.0019606909     1     7     4     2
 -0.0012950584     1     7     4     3
 -0.0016364209     1     7     4     4
 -0.0007622842     1     7     4     6
 -0.0002267941     1     7     4     8
 0.0006726134     1     7     4     9
 0.0011992114     1     7     4    10
 0.0011427292     1     7     4    12
 0.0002603737     1     7     4    13
 -0.0019441311     1     7     5     5
 -0.0006100520     1     7     5    11
 0.0017267729     1     7     5    14
 -0.0225695388     1     7     6     1
 0.0023841554     1     7     6     2
 0.0011671609     1     7     6     3
 0.0003941336     1     7     6     4
 -0.0007729840     1     7     6     6
 0.0000331301     1     7     6     8
 0.0005818168     1     7     6     9
 0.0005297669     1     7     6    10
 0.0003885796     1     7     6    12
 -0.0004301915     1     7     6    13
 -0.3075360250     1     7     7     1
 0.0043665328     1     7     7     2
 -0.0022364673     1     7     7     3
 0.0017882482     1     7     7     4
 -0.0016037612     1     7     7     6
 0.0008348568     1     7     7     8
 0.0004840488     1     7     7     9
 -0.0006844947     1     7     7    10
 0.0007044984     1     7     7    12
 0.0001545461     1     7     7    13
 0.0753691277     1     7     8     1
 -0.0032512963     1     7     8     2
 0.0000692703     1     7     8     3
 -0.0013288154     1     7     8     4
 0.0009129238     1     7     8     6
 -0.0011632807     1     7     8     8
 -0.0003580154     1     7     8     9
 -0.0002924841     1     7     8    10
 -0.0009209754     1     7     8    12
 0.0001485886     1     7     8    13
 -0.0473361597     1     7     9     1
 0.0013748188     1     7     9     2
 -0.0016529628     1     7     9     3
 0.0005528488     1     7     9     4
 -0.0003603700     1     7     9     6
 0.0004023940     1     7     9     8
 0.0000702504     1     7     9     9
 0.0005932477     1     7     9    10
 0.0002715744     1     7     9    12
 -0.0006592094     1     7     9    13
 -0.0516890930     1     7    10     1
 0.0018886434     1     7    10     2
 -0.0012946072     1     7    10     3
 0.0023407056     1     7    10     4
 -0.0001273198     1     7    10     6
 -0.0000790252     1     7    10     8
 0.0007469598     1     7    10     9
 -0.0007736245     1     7    10    10
 0.0003756255     1     7    10    12
 0.0000478710     1     7    10    13
 -0.0012875618     1     7    11     5
 -0.0014557602     1     7    11    11
 0.0001096790     1     7    11    14
 0.0633112560     1     7    12     1
 -0.0033958865     1     7    12     2
 0.0015602293     1     7    12     3
 -0.0000147782     1     7    12     4
 0.0015119028     1     7    12     6
 -0.0011338706     1     7    12     8
 -0.0004467263     1     7    12     9
 0.0002500962     1     7    12    10
 -0.0007484403     1     7    12    12
 0.0001437751     1     7    12    13
 0.1344774770     1     7    13     1
 -0.0057144048     1     7    13     2
 0.0019406641     1     7    13     3
 -0.0012615603     1     7    13     4
 0.0020639009     1     7    13     6
 -0.0011616941     1     7    13     8
 -0.0013387014     1     7    13     9
 0.0003406161     1     7    13    10
 -0.0009095733     1     7    13    12
 0.0004539207     1     7    13    13
 0.0023058487     1     7    14     5
 0.0002341876     1     7    14    11
 -0.0001327650     1     7    14    14
 -0.0573054332     1     8     2     1
 0.0001575186     1     8     2     2
 -0.0018428306     1     8     2     3
 -0.0010679101     1     8     2     4
 -0.0002014628     1     8     2     6
 -0.0002552437     1     8     2     7
 0.0001432743     1     8     2     9
 -0.0004410794     1     8     2    10
 -0.0002714412     1     8     2    12
 0.0000084334     1     8     2    13
 0.0823133294     1     8     3     1
 -0.0072134008     1     8     3     2
 -0.0005424596     1     8     3     3
 0.0019745705     1     8     3     4
 0.0016964476     1     8     3     6
 -0.0008608003     1     8     3     7
 -0.0004494322     1     8     3     9
 -0.0019363334     1     8     3    10
 -0.0012901004     1     8     3    12
 0.0015530729     1     8     3    13
 0.0961990584     1     8     4     1
 -0.0088103967     1     8     4     2
 0.0044344167     1     8     4     3
 -0.0040505524     1     8     4     4
 0.0010985733     1     8     4     6
 0.0002267941     1     8     4     7
 -0.0017366712     1     8     4     9
 0.0016067935     1     8     4    10
 -0.0006271803     1     8     4    12
 -0.0006926010     1     8     4    13
 -0.0057108691     1     8     5     5
 -0.0036236607     1     8     5    11
 0.0008007021     1     8     5    14
 0.1294693109     1     8     6     1
 -0.0043278706     1     8     6     2
 0.0002581122     1     8     6     3
 -0.0028032861     1     8     6     4
 0.0008763999     1     8     6     6
 -0.0000331301     1     8     6     7
 -0.0008610412     1     8     6     9
 0.0004331667     1     8     6    10
 -0.0002454054     1     8     6    12
 0.0003523023     1     8     6    13
 0.0753691277     1     8     7     1
 -0.0035170502     1     8     7     2
 -0.0007968067     1     8     7     3
 -0.0011118919     1     8     7     4
 0.0008815280     1     8     7     6
 -0.0008348568     1     8     7     7
 -0.0007608883     1     8     7     9
 -0.0002154562     1     8     7    10
 0.0002110376     1     8     7    12
 0.0013109007     1     8     7    13
 -0.3909780587     1     8     8     1
 0.0044411023     1     8     8     2
 0.0019812338     1     8     8     3
 0.0044676314     1     8     8     4
 0.0001541904     1     8     8     6
 0.0011632807     1     8     8     7
 0.0013026835     1     8     8     9
 -0.0007037250     1     8     8    10
 -0.0004310935     1     8     8    12
 -0.0016929720     1     8     8    13
 0.0113747032     1     8     9     1
 -0.0013264839     1     8     9     2
 -0.0001192003     1     8     9     3
 0.0000244925     1     8     9     4
 0.0004338294     1     8     9     6
 -0.0004023940     1     8     9     7
 0.0000312755     1     8     9     9