&FCI NORB= 13,NELEC= 10,MS2=0,
 ORBSYM=1,1,1,1,1,1,1,1,1,1,1,1,1
 ISYM=1,
&END
 0.9838892782     1     1     2     2
 -0.0672786281     1     1     2     4
 0.1288821574     1     1     2     6
 -0.0353241306     1     1     2     9
 0.1109298481     1     1     2    10
 0.0745643194     1     1     2    12
 0.8690108889     1     1     3     3
 0.1491301700     1     1     3     7
 -0.0785399334     1     1     3     8
 -0.2337522734     1     1     3    13
 -0.0672786281     1     1     4     2
 0.9507030226     1     1     4     4
 0.0685066607     1     1     4     6
 0.1672001342     1     1     4     9
 0.1631052142     1     1     4    10
 0.0515842651     1     1     4    12
 0.9983593013     1     1     5     5
 0.2953405216     1     1     5    11
 0.1288821574     1     1     6     2
 0.0685066607     1     1     6     4
 0.3154964975     1     1     6     6
 0.0074087978     1     1     6     9
 0.1152968576     1     1     6    10
 0.0619791890     1     1     6    12
 0.1491301700     1     1     7     3
 0.2838457515     1     1     7     7
 -0.0652721457     1     1     7     8
 -0.1475246414     1     1     7    13
 -0.0785399334     1     1     8     3
 -0.0652721457     1     1     8     7
 0.3896177549     1     1     8     8
 0.0794586674     1     1     8    13
 -0.0353241306     1     1     9     2
 0.1672001342     1     1     9     4
 0.0074087978     1     1     9     6
 0.3826428866     1     1     9     9
 0.0346870621     1     1     9    10
 0.0247481849     1     1     9    12
 0.1109298481     1     1    10     2
 0.1631052142     1     1    10     4
 0.1152968576     1     1    10     6
 0.0346870621     1     1    10     9
 0.4570429948     1     1    10    10
 0.0437057306     1     1    10    12
 0.2953405216     1     1    11     5
 0.5396281130     1     1    11    11
 0.0745643194     1     1    12     2
 0.0515842651     1     1    12     4
 0.0619791890     1     1    12     6
 0.0247481849     1     1    12     9
 0.0437057306     1     1    12    10
 0.3784671240     1     1    12    12
 -0.2337522734     1     1    13     3
 -0.1475246414     1     1    13     7
 0.0794586674     1     1    13     8
 0.4774649449     1     1    13    13
 -0.9838892782     1     2     2     1
 -0.0069925158     1     2     2     4
 -0.0013761199     1     2     2     6
 -0.0029891545     1     2     2     9
 -0.0036730136     1     2     2    10
 -0.0015950967     1     2     2    12
 -0.0309579222     1     2     3     3
 -0.0109155102     1     2     3     7
 0.0087250684     1     2     3     8
 0.0212371898     1     2     3    13
 0.0672786281     1     2     4     1
 -0.0359715110     1     2     4     4
 -0.0063753526     1     2     4     6
 -0.0118444903     1     2     4     9
 -0.0150666801     1     2     4    10
 -0.0065022513     1     2     4    12
 -0.0409066153     1     2     5     5
 -0.0242970019     1     2     5    11
 -0.1288821574     1     2     6     1
 -0.0061628841     1     2     6     4
 -0.0013491084     1     2     6     6
 -0.0021822230     1     2     6     9
 -0.0032414697     1     2     6    10
 -0.0014004501     1     2     6    12
 -0.0080917975     1     2     7     3
 -0.0034156343     1     2     7     7
 0.0026817634     1     2     7     8
 0.0068797417     1     2     7    13
 0.0058207732     1     2     8     3
 0.0023638450     1     2     8     7
 -0.0020221201     1     2     8     8
 -0.0043698805     1     2     8    13
 0.0353241306     1     2     9     1
 -0.0087052022     1     2     9     4
 -0.0014909437     1     2     9     6
 -0.0039793962     1     2     9     9
 -0.0046491362     1     2     9    10
 -0.0014689339     1     2     9    12
 -0.1109298481     1     2    10     1
 -0.0123695251     1     2    10     4
 -0.0026632457     1     2    10     6
 -0.0052976904     1     2    10     9
 -0.0064090673     1     2    10    10
 -0.0025614907     1     2    10    12
 -0.0178682756     1     2    11     5
 -0.0135999543     1     2    11    11
 -0.0745643194     1     2    12     1
 -0.0049455535     1     2    12     4
 -0.0010439722     1     2    12     6
 -0.0015775562     1     2    12     9
 -0.0023247612     1     2    12    10
 -0.0008823048     1     2    12    12
 0.0143418521     1     2    13     3
 0.0062758136     1     2    13     7
 -0.0045295803     1     2    13     8
 -0.0121640014     1     2    13    13
 -0.0020952495     1     3     2     7
 0.0024006690     1     3     2     8
 0.0056063636     1     3     2    13
 -0.8690108889     1     3     3     1
 0.0309579222     1     3     3     2
 -0.0104938924     1     3     3     4
 0.0041296173     1     3     3     6
 -0.0027994939     1     3     3     9
 -0.0006143337     1     3     3    10
 0.0042325602     1     3     3    12
 -0.0010042517     1     3     4     7
 0.0039984693     1     3     4     8
 0.0013821096     1     3     4    13
 0.0018366816     1     3     6     7
 0.0004200444     1     3     6     8
 -0.0016564041     1     3     6    13
 -0.1491301700     1     3     7     1
 0.0080917975     1     3     7     2
 -0.0028381655     1     3     7     4
 0.0036297669     1     3     7     6
 -0.0012712919     1     3     7     9
 0.0019388861     1     3     7    10
 0.0011712580     1     3     7    12
 0.0785399334     1     3     8     1
 -0.0058207732     1     3     8     2
 0.0018458449     1     3     8     4
 -0.0017498592     1     3     8     6
 -0.0010218663     1     3     8     9
 -0.0040306493     1     3     8    10
 -0.0026888743     1     3     8    12
 -0.0008989126     1     3     9     7
 -0.0000511669     1     3     9     8
 0.0028435055     1     3     9    13
 0.0014184073     1     3    10     7
 -0.0018300032     1     3    10     8
 -0.0032518742     1     3    10    13
 -0.0006549199     1     3    12     7
 -0.0005998862     1     3    12     8
 0.0004718339     1     3    12    13
 0.2337522734     1     3    13     1
 -0.0143418521     1     3    13     2
 0.0049420228     1     3    13     4
 -0.0051954706     1     3    13     6
 0.0035725368     1     3    13     9
 -0.0043434281     1     3    13    10
 -0.0031067649     1     3    13    12
 0.0672786281     1     4     2     1
 0.0069925158     1     4     2     2
 0.0003193012     1     4     2     6
 -0.0023473861     1     4     2     9
 -0.0016219612     1     4     2    10
 -0.0011213134     1     4     2    12
 0.0104938924     1     4     3     3
 0.0020143030     1     4     3     7
 0.0020787749     1     4     3     8
 -0.0039188538     1     4     3    13
 -0.9507030226     1     4     4     1
 0.0359715110     1     4     4     2
 0.0082114414     1     4     4     6
 -0.0005828283     1     4     4     9
 0.0102274154     1     4     4    10
 0.0021468452     1     4     4    12
 0.0136564887     1     4     5     5
 0.0077839663     1     4     5    11
 -0.0685066607     1     4     6     1
 0.0061628841     1     4     6     2
 0.0032818686     1     4     6     6
 0.0014096573     1     4     6     9
 0.0035648730     1     4     6    10
 0.0014559939     1     4     6    12
 0.0028381655     1     4     7     3
 0.0020921347     1     4     7     7
 -0.0009561611     1     4     7     8
 -0.0024266963     1     4     7    13
 -0.0018458449     1     4     8     3
 -0.0021642382     1     4     8     7
 0.0012936481     1     4     8     8
 0.0052728730     1     4     8    13
 -0.1672001342     1     4     9     1
 0.0087052022     1     4     9     2
 0.0042356134     1     4     9     6
 -0.0010108426     1     4     9     9
 0.0018962061     1     4     9    10
 0.0032190686     1     4     9    12
 -0.1631052142     1     4    10     1
 0.0123695251     1     4    10     2
 0.0052056231     1     4    10     6
 -0.0017633953     1     4    10     9
 0.0067982749     1     4    10    10
 0.0030707155     1     4    10    12
 0.0062480383     1     4    11     5
 0.0044918153     1     4    11    11
 -0.0515842651     1     4    12     1
 0.0049455535     1     4    12     2
 0.0026158702     1     4    12     6
 0.0024864747     1     4    12     9
 0.0041210321     1     4    12    10
 0.0032053948     1     4    12    12
 -0.0049420228     1     4    13     3
 -0.0022250956     1     4    13     7
 0.0027856465     1     4    13     8
 0.0041428224     1     4    13    13
 -0.0048572629     1     5     2    11
 0.0010994662     1     5     4    11
 -0.9983593013     1     5     5     1
 0.0409066153     1     5     5     2
 -0.0136564887     1     5     5     4
 0.0078106024     1     5     5     6
 -0.0074460305     1     5     5     9
 0.0080677997     1     5     5    10
 0.0061062001     1     5     5    12
 0.0021549860     1     5     6    11
 0.0014019503     1     5     9    11
 -0.0011641006     1     5    10    11
 -0.2953405216     1     5    11     1
 0.0178682756     1     5    11     2
 -0.0062480383     1     5    11     4
 0.0069811327     1     5    11     6
 -0.0029792807     1     5    11     9
 0.0039965383     1     5    11    10
 0.0033166600     1     5    11    12
 -0.0004944760     1     5    12    11
 -0.1288821574     1     6     2     1
 0.0013761199     1     6     2     2
 -0.0003193012     1     6     2     4
 -0.0007051049     1     6     2     9
 -0.0006080079     1     6     2    10
 -0.0003735315     1     6     2    12
 -0.0041296173     1     6     3     3
 -0.0017973178     1     6     3     7
 0.0021974582     1     6     3     8
 0.0035939635     1     6     3    13
 -0.0685066607     1     6     4     1
 0.0063753526     1     6     4     2
 -0.0082114414     1     6     4     4
 -0.0028775679     1     6     4     9
 -0.0017016722     1     6     4    10
 -0.0011773801     1     6     4    12
 -0.0078106024     1     6     5     5
 -0.0048081844     1     6     5    11
 -0.3154964975     1     6     6     1
 0.0013491084     1     6     6     2
 -0.0032818686     1     6     6     4
 -0.0008489235     1     6     6     9
 -0.0008143720     1     6     6    10
 -0.0003301128     1     6     6    12
 -0.0036297669     1     6     7     3
 -0.0011653176     1     6     7     7
 0.0009974671     1     6     7     8
 0.0025963230     1     6     7    13
 0.0017498592     1     6     8     3
 0.0003747995     1     6     8     7
 -0.0003530669     1     6     8     8
 -0.0004849831     1     6     8    13
 -0.0074087978     1     6     9     1
 0.0014909437     1     6     9     2
 -0.0042356134     1     6     9     4
 -0.0017740301     1     6     9     9
 -0.0016848887     1     6     9    10
 -0.0001293302     1     6     9    12
 -0.1152968576     1     6    10     1
 0.0026632457     1     6    10     2
 -0.0052056231     1     6    10     4
 -0.0022840608     1     6    10     9
 -0.0010833727     1     6    10    10
 -0.0003709536     1     6    10    12
 -0.0069811327     1     6    11     5
 -0.0045654170     1     6    11    11
 -0.0619791890     1     6    12     1
 0.0010439722     1     6    12     2
 -0.0026158702     1     6    12     4
 -0.0003874896     1     6    12     9
 -0.0003789304     1     6    12    10
 0.0001916310     1     6    12    12
 0.0051954706     1     6    13     3
 0.0019514031     1     6    13     7
 -0.0012189054     1     6    13     8
 -0.0038071789     1     6    13    13
 0.0020952495     1     7     2     3
 0.0003148163     1     7     2     8
 0.0005715882     1     7     2    13
 -0.1491301700     1     7     3     1
 0.0109155102     1     7     3     2
 -0.0020143030     1     7     3     4
 0.0017973178     1     7     3     6
 -0.0004041988     1     7     3     9
 0.0004885126     1     7     3    10
 0.0018235639     1     7     3    12
 0.0010042517     1     7     4     3
 0.0012157295     1     7     4     8
 -0.0001854518     1     7     4    13
 -0.0018366816     1     7     6     3
 0.0006216945     1     7     6     8
 0.0006412574     1     7     6    13
 -0.2838457515     1     7     7     1
 0.0034156343     1     7     7     2
 -0.0020921347     1     7     7     4
 0.0011653176     1     7     7     6
 -0.0008001285     1     7     7     9
 0.0003358136     1     7     7    10
 0.0002941765     1     7     7    12
 0.0652721457     1     7     8     1
 -0.0023638450     1     7     8     2
 0.0021642382     1     7     8     4
 -0.0003747995     1     7     8     6
 0.0001355634     1     7     8     9
 -0.0008181308     1     7     8    10
 -0.0007290570     1     7     8    12
 0.0008989126     1     7     9     3
 -0.0002555923     1     7     9     8
 0.0003949984     1     7     9    13
 -0.0014184073     1     7    10     3
 -0.0002828665     1     7    10     8
 -0.0001904538     1     7    10    13
 0.0006549199     1     7    12     3
 -0.0003823291     1     7    12     8
 -0.0002730129     1     7    12    13
 0.1475246414     1     7    13     1
 -0.0062758136     1     7    13     2
 0.0022250956     1     7    13     4
 -0.0019514031     1     7    13     6
 0.0014022244     1     7    13     9
 -0.0015807626     1     7    13    10
 -0.0011618581     1     7    13    12
 -0.0024006690     1     8     2     3
 -0.0003148163     1     8     2     7
 0.0001772083     1     8     2    13
 0.0785399334     1     8     3     1
 -0.0087250684     1     8     3     2
 -0.0020787749     1     8     3     4
 -0.0021974582     1     8     3     6
 -0.0009460769     1     8     3     9
 -0.0022181128     1     8     3    10
 -0.0021001008     1     8     3    12
 -0.0039984693     1     8     4     3
 -0.0012157295     1     8     4     7
 0.0024843450     1     8     4    13
 -0.0004200444     1     8     6     3
 -0.0006216945     1     8     6     7
 0.0007358483     1     8     6    13
 0.0652721457     1     8     7     1
 -0.0026817634     1     8     7     2
 0.0009561611     1     8     7     4
 -0.0009974671     1     8     7     6
 0.0003900463     1     8     7     9
 -0.0005376953     1     8     7    10
 -0.0003491300     1     8     7    12
 -0.3896177549     1     8     8     1
 0.0020221201     1     8     8     2
 -0.0012936481     1     8     8     4
 0.0003530669     1     8     8     6
 0.0000170380     1     8     8     9
 0.0007835762     1     8     8    10
 0.0005925991     1     8     8    12
 0.0000511669     1     8     9     3
 0.0002555923     1     8     9     7
 -0.0007752501     1     8     9    13
 0.0018300032     1     8    10     3
 0.0002828665     1     8    10     7
 -0.0003952397     1     8    10    13
 0.0005998862     1     8    12     3
 0.0003823291     1     8    12     7
 -0.0005168692     1     8    12    13
 -0.0794586674     1     8    13     1
 0.0045295803     1     8    13     2
 -0.0027856465     1     8    13     4
 0.0012189054     1     8    13     6
 -0.0014226215     1     8    13     9
 0.0006436796     1     8    13    10
 0.0006655621     1     8    13    12
 0.0353241306     1     9     2     1
 0.0029891545     1     9     2     2
 0.0023473861     1     9     2     4
 0.0007051049     1     9     2     6
 0.0006828024     1     9     2    10
 0.0001362968     1     9     2    12
 0.0027994939     1     9     3     3
 0.0004041988     1     9     3     7
 0.0009460769     1     9     3     8
 -0.0008308894     1     9     3    13
 -0.1672001342     1     9     4     1
 0.0118444903     1     9     4     2
 0.0005828283     1     9     4     4
 0.0028775679     1     9     4     6
 0.0037181363     1     9     4    10
 0.0007608263     1     9     4    12
 0.0074460305     1     9     5     5
 0.0044460496     1     9     5    11
 -0.0074087978     1     9     6     1
 0.0021822230     1     9     6     2
 -0.0014096573     1     9     6     4
 0.0008489235     1     9     6     6
 0.0006016207     1     9     6    10
 0.0002590564     1     9     6    12
 0.0012712919     1     9     7     3
 0.0008001285     1     9     7     7
 -0.0003900463     1     9     7     8
 -0.0010071047     1     9     7    13
 0.0010218663     1     9     8     3
 -0.0001355634     1     9     8     7
 -0.0000170380     1     9     8     8
 0.0006445701     1     9     8    13
 -0.3826428866     1     9     9     1
 0.0039793962     1     9     9     2
 0.0010108426     1     9     9     4
 0.0017740301     1     9     9     6
 0.0012843473     1     9     9    10
 0.0013800533     1     9     9    12
 -0.0346870621     1     9    10     1
 0.0052976904     1     9    10     2
 0.0017633953     1     9    10     4
 0.0022840608     1     9    10     6
 0.0032981373     1     9    10    10
 0.0014695585     1     9    10    12
 0.0029792807     1     9    11     5
 0.0019972583     1     9    11    11
 -0.0247481849     1     9    12     1
 0.0015775562     1     9    12     2
 -0.0024864747     1     9    12     4
 0.0003874896     1     9    12     6
 0.0002836247     1     9    12    10
 0.0006291692     1     9    12    12
 -0.0035725368     1     9    13     3
 -0.0014022244     1     9    13     7
 0.0014226215     1     9    13     8
 0.0026498422     1     9    13    13
 -0.1109298481     1    10     2     1
 0.0036730136     1    10     2     2
 0.0016219612     1    10     2     4
 0.0006080079     1    10     2     6
 -0.0006828024     1    10     2     9
 -0.0002274736     1    10     2    12
 0.0006143337     1    10     3     3
 -0.0004885126     1    10     3     7
 0.0022181128     1    10     3     8
 0.0010717201     1    10     3    13
 -0.1631052142     1    10     4     1
 0.0150666801     1    10     4     2
 -0.0102274154     1    10     4     4
 0.0017016722     1    10     4     6
 -0.0037181363     1    10     4     9
 -0.0010225726     1    10     4    12
 -0.0080677997     1    10     5     5
 -0.0050676120     1    10     5    11
 -0.1152968576     1    10     6     1
 0.0032414697     1    10     6     2
 -0.0035648730     1    10     6     4
 0.0008143720     1    10     6     6
 -0.0006016207     1    10     6     9
 0.0000082031     1    10     6    12
 -0.0019388861     1    10     7     3
 -0.0003358136     1    10     7     7
 0.0005376953     1    10     7     8
 0.0013910360     1    10     7    13
 0.0040306493     1    10     8     3
 0.0008181308     1    10     8     7
 -0.0007835762     1    10     8     8
 -0.0010393477     1    10     8    13
 -0.0346870621     1    10     9     1
 0.0046491362     1    10     9     2
 -0.0018962061     1    10     9     4
 0.0016848887     1    10     9     6
 -0.0012843473     1    10     9     9
 0.0011849464     1    10     9    12
 -0.4570429948     1    10    10     1
 0.0064090673     1    10    10     2
 -0.0067982749     1    10    10     4
 0.0010833727     1    10    10     6
 -0.0032981373     1    10    10     9
 0.0001712707     1    10    10    12
 -0.0039965383     1    10    11     5
 -0.0027140537     1    10    11    11
 -0.0437057306     1    10    12     1
 0.0023247612     1    10    12     2
 -0.0041210321     1    10    12     4
 0.0003789304     1    10    12     6
 -0.0002836247     1    10    12     9
 0.0007198451     1    10    12    12
 0.0043434281     1    10    13     3
 0.0015807626     1    10    13     7
 -0.0006436796     1    10    13     8
 -0.0031271978     1    10    13    13
 0.0048572629     1    11     2     5
 -0.0010994662     1    11     4     5
 -0.2953405216     1    11     5     1
 0.0242970019     1    11     5     2
 -0.0077839663     1    11     5     4
 0.0048081844     1    11     5     6
 -0.0044460496     1    11     5     9
 0.0050676120     1    11     5    10
 0.0037776523     1    11     5    12
 -0.0021549860     1    11     6     5
 -0.0014019503     1    11     9     5
 0.0011641006     1    11    10     5
 -0.5396281130     1    11    11     1
 0.0135999543     1    11    11     2
 -0.0044918153     1    11    11     4
 0.0045654170     1    11    11     6
 -0.0019972583     1    11    11     9
 0.0027140537     1    11    11    10
 0.0022242744     1    11    11    12
 0.0004944760     1    11    12     5
 -0.0745643194     1    12     2     1
 0.0015950967     1    12     2     2
 0.0011213134     1    12     2     4
 0.0003735315     1    12     2     6
 -0.0001362968     1    12     2     9
 0.0002274736     1    12     2    10
 -0.0042325602     1    12     3     3
 -0.0018235639     1    12     3     7
 0.0021001008     1    12     3     8
 0.0035922099     1    12     3    13
 -0.0515842651     1    12     4     1
 0.0065022513     1    12     4     2
 -0.0021468452     1    12     4     4
 0.0011773801     1    12     4     6
 -0.0007608263     1    12     4     9
 0.0010225726     1    12     4    10
 -0.0061062001     1    12     5     5
 -0.0037776523     1    12     5    11
 -0.0619791890     1    12     6     1
 0.0014004501     1    12     6     2
 -0.0014559939     1    12     6     4
 0.0003301128     1    12     6     6
 -0.0002590564     1    12     6     9
 -0.0000082031     1    12     6    10
 -0.0011712580     1    12     7     3
 -0.0002941765     1    12     7     7
 0.0003491300     1    12     7     8
 0.0008936167     1    12     7    13
 0.0026888743     1    12     8     3
 0.0007290570     1    12     8     7
 -0.0005925991     1    12     8     8
 -0.0011822465     1    12     8    13
 -0.0247481849     1    12     9     1
 0.0014689339     1    12     9     2
 -0.0032190686     1    12     9     4
 0.0001293302     1    12     9     6
 -0.0013800533     1    12     9     9
 -0.0011849464     1    12     9    10
 -0.0437057306     1    12    10     1
 0.0025614907     1    12    10     2
 -0.0030707155     1    12    10     4
 0.0003709536     1    12    10     6
 -0.0014695585     1    12    10     9
 -0.0001712707     1    12    10    10
 -0.0033166600     1    12    11     5
 -0.0022242744     1    12    11    11
 -0.3784671240     1    12    12     1
 0.0008823048     1    12    12     2
 -0.0032053948     1    12    12     4
 -0.0001916310     1    12    12     6
 -0.0006291692     1    12    12     9
 -0.0007198451     1    12    12    10
 0.0031067649     1    12    13     3
 0.0011618581     1    12    13     7
 -0.0006655621     1    12    13     8
 -0.0022845138     1    12    13    13
 -0.0056063636     1    13     2     3
 -0.0005715882     1    13     2     7
 -0.0001772083     1    13     2     8
 0.2337522734     1    13     3     1
 -0.0212371898     1    13     3     2
 0.0039188538     1    13     3     4
 -0.0035939635     1    13     3     6
 0.0008308894     1    13     3     9
 -0.0010717201     1    13     3    10
 -0.0035922099     1    13     3    12
 -0.0013821096     1    13     4     3
 0.0001854518     1    13     4     7
 -0.0024843450     1    13     4     8
 0.0016564041     1    13     6     3
 -0.0006412574     1    13     6     7
 -0.0007358483     1    13     6     8
 0.1475246414     1    13     7     1
 -0.0068797417     1    13     7     2
 0.0024266963     1    13     7     4
 -0.0025963230     1    13     7     6
 0.0010071047     1    13     7     9
 -0.0013910360     1    13     7    10
 -0.0008936167     1    13     7    12
 -0.0794586674     1    13     8     1
 0.0043698805     1    13     8     2
 -0.0052728730     1    13     8     4
 0.0004849831     1    13     8     6
 -0.0006445701     1    13     8     9
 0.0010393477     1    13     8    10
 0.0011822465     1    13     8    12
 -0.0028435055     1    13     9     3
 -0.0003949984     1    13     9     7
 0.0007752501     1    13     9     8
 0.0032518742     1    13    10     3
 0.0001904538     1    13    10     7
 0.0003952397     1    13    10     8
 -0.0004718339     1    13    12     3
 0.0002730129     1    13    12     7
 0.0005168692     1    13    12     8
 -0.4774649449     1    13    13     1
 0.0121640014     1    13    13     2
 -0.0041428224     1    13    13     4
 0.0038071789     1    13    13     6
 -0.0026498422     1    13    13     9
 0.0031271978     1    13    13    10
 0.0022845138     1    13    13    12
 -0.9838892782     2     1     1     2
 0.0672786281     2     1     1     4
 -0.1288821574     2     1     1     6
 0.0353241306     2     1     1     9
 -0.1109298481     2     1     1    10
 -0.0745643194     2     1     1    12
 -0.0309579222     2     1     3     3
 -0.0080917975     2     1     3     7
 0.0058207732     2     1     3     8
 0.0143418521     2     1     3    13
 -0.0069925158     2     1     4     2
 -0.0359715110     2     1     4     4
 -0.0061628841     2     1     4     6
 -0.0087052022     2     1     4     9
 -0.0123695251     2     1     4    10
 -0.0049455535     2     1     4    12
 -0.0409066153     2     1     5     5
 -0.0178682756     2     1     5    11
 -0.0013761199     2     1     6     2
 -0.0063753526     2     1     6     4
 -0.0013491084     2     1     6     6
 -0.0014909437     2     1     6     9
 -0.0026632457     2     1     6    10
 -0.0010439722     2     1     6    12
 -0.0109155102     2     1     7     3
 -0.0034156343     2     1     7     7
 0.0023638450     2     1     7     8
 0.0062758136     2     1     7    13
 0.0087250684     2     1     8     3
 0.0026817634     2     1     8     7
 -0.0020221201     2     1     8     8
 -0.0045295803     2     1     8    13
 -0.0029891545     2     1     9     2
 -0.0118444903     2     1     9     4
 -0.0021822230     2     1     9     6
 -0.0039793962     2     1     9     9
 -0.0052976904     2     1     9    10
 -0.0015775562     2     1     9    12
 -0.0036730136     2     1    10     2
 -0.0150666801     2     1    10     4
 -0.0032414697     2     1    10     6
 -0.0046491362     2     1    10     9
 -0.0064090673     2     1    10    10
 -0.0023247612     2     1    10    12
 -0.0242970019     2     1    11     5
 -0.0135999543     2     1    11    11
 -0.0015950967     2     1    12     2
 -0.0065022513     2     1    12     4
 -0.0014004501     2     1    12     6
 -0.0014689339     2     1    12     9
 -0.0025614907     2     1    12    10
 -0.0008823048     2     1    12    12
 0.0212371898     2     1    13     3
 0.0068797417     2     1    13     7
 -0.0043698805     2     1    13     8
 -0.0121640014     2     1    13    13
 0.9838892782     2     2     1     1
 0.0069925158     2     2     1     4
 0.0013761199     2     2     1     6
 0.0029891545     2     2     1     9
 0.0036730136     2     2     1    10
 0.0015950967     2     2     1    12
 0.5279442558     2     2     3     3
 0.0614080209     2     2     3     7
 -0.0163271660     2     2     3     8
 -0.0832861180     2     2     3    13
 0.0069925158     2     2     4     1
 0.5508364648     2     2     4     4
 0.0298289215     2     2     4     6
 0.0675410729     2     2     4     9
 0.0623626328     2     2     4    10
 0.0116103792     2     2     4    12
 0.5785395515     2     2     5     5
 0.1153997441     2     2     5    11
 0.0013761199     2     2     6     1
 0.0298289215     2     2     6     4
 0.2794151654     2     2     6     6
 0.0082570738     2     2     6     9
 0.0679562579     2     2     6    10
 0.0355846567     2     2     6    12
 0.0614080209     2     2     7     3
 0.2555583923     2     2     7     7
 -0.0428961699     2     2     7     8
 -0.0866909633     2     2     7    13
 -0.0163271660     2     2     8     3
 -0.0428961699     2     2     8     7
 0.3578992834     2     2     8     8
 0.0440708930     2     2     8    13
 0.0029891545     2     2     9     1
 0.0675410729     2     2     9     4
 0.0082570738     2     2     9     6
 0.3319759547     2     2     9     9
 -0.0013171100     2     2     9    10
 0.0243892666     2     2     9    12
 0.0036730136     2     2    10     1
 0.0623626328     2     2    10     4
 0.0679562579     2     2    10     6
 -0.0013171100     2     2    10     9
 0.3775993141     2     2    10    10
 0.0127670367     2     2    10    12
 0.1153997441     2     2    11     5
 0.4082217992     2     2    11    11
 0.0015950967     2     2    12     1
 0.0116103792     2     2    12     4
 0.0355846567     2     2    12     6
 0.0243892666     2     2    12     9
 0.0127670367     2     2    12    10
 0.3564092143     2     2    12    12
 -0.0832861180     2     2    13     3
 -0.0866909633     2     2    13     7
 0.0440708930     2     2    13     8
 0.3642502062     2     2    13    13
 0.0020952495     2     3     1     7
 -0.0024006690     2     3     1     8
 -0.0056063636     2     3     1    13
 0.0309579222     2     3     3     1
 -0.5279442558     2     3     3     2
 0.0016711697     2     3     3     4
 -0.0581972198     2     3     3     6
 0.0212426061     2     3     3     9
 -0.0651910814     2     3     3    10
 -0.0143377297     2     3     3    12
 -0.0083262319     2     3     4     7
 0.0274615076     2     3     4     8
 0.0103552556     2     3     4    13
 0.0298155135     2     3     6     7
 0.0004111016     2     3     6     8
 -0.0224097615     2     3     6    13
 0.0109155102     2     3     7     1
 -0.0614080209     2     3     7     2
 -0.0004045044     2     3     7     4
 0.0185297956     2     3     7     6
 -0.0011982116     2     3     7     9
 0.0036525413     2     3     7    10
 -0.0104965372     2     3     7    12
 -0.0087250684     2     3     8     1
 0.0163271660     2     3     8     2
 0.0041536317     2     3     8     4
 0.0024997463     2     3     8     6
 -0.0152634777     2     3     8     9
 -0.0274604703     2     3     8    10
 -0.0143382828     2     3     8    12
 -0.0055944116     2     3     9     7
 -0.0118895350     2     3     9     8
 0.0237032581     2     3     9    13
 0.0158226019     2     3    10     7
 -0.0267902680     2     3    10     8
 -0.0336182306     2     3    10    13
 -0.0055134712     2     3    12     7
 -0.0184303091     2     3    12     8
 -0.0055254914     2     3    12    13
 -0.0212371898     2     3    13     1
 0.0832861180     2     3    13     2
 -0.0010341576     2     3    13     4
 -0.0068199950     2     3    13     6
 0.0175777823     2     3    13     9
 -0.0173443663     2     3    13    10
 0.0028356965     2     3    13    12
 -0.0672786281     2     4     1     1
 -0.0069925158     2     4     1     2
 -0.0003193012     2     4     1     6