&FCI NORB= 10,NELEC= 10,MS2=0,
 ORBSYM=1,1,1,1,1,1,1,1,1,1
 ISYM=1,
&END
 0.9841026044     1     1     2     2
 -0.0674184744     1     1     2     4
 -0.1180853376     1     1     2     6
 -0.0326141375     1     1     2     9
 0.1025720624     1     1     2    10
 0.8709836122     1     1     3     3
 -0.1348475551     1     1     3     7
 0.0694270552     1     1     3     8
 -0.0674184744     1     1     4     2
 0.9501312447     1     1     4     4
 -0.0598037758     1     1     4     6
 0.1516451101     1     1     4     9
 0.1474633351     1     1     4    10
 0.9922161688     1     1     5     5
 -0.1180853376     1     1     6     2
 -0.0598037758     1     1     6     4
 0.3157295307     1     1     6     6
 -0.0074573296     1     1     6     9
 -0.1154249936     1     1     6    10
 -0.1348475551     1     1     7     3
 0.2840709237     1     1     7     7
 -0.0653574609     1     1     7     8
 0.0694270552     1     1     8     3
 -0.0653574609     1     1     8     7
 0.3897348239     1     1     8     8
 -0.0326141375     1     1     9     2
 0.1516451101     1     1     9     4
 -0.0074573296     1     1     9     6
 0.3829083732     1     1     9     9
 0.0347895082     1     1     9    10
 0.1025720624     1     1    10     2
 0.1474633351     1     1    10     4
 -0.1154249936     1     1    10     6
 0.0347895082     1     1    10     9
 0.4571075476     1     1    10    10
 -0.9841026044     1     2     2     1
 0.0070379891     1     2     2     4
 -0.0010959734     1     2     2     6
 0.0030402850     1     2     2     9
 0.0034595010     1     2     2    10
 0.0312350734     1     2     3     3
 -0.0104672902     1     2     3     7
 0.0084439046     1     2     3     8
 0.0674184744     1     2     4     1
 0.0360145932     1     2     4     4
 -0.0060487944     1     2     4     6
 0.0112765070     1     2     4     9
 0.0144973064     1     2     4    10
 0.0405951432     1     2     5     5
 0.1180853376     1     2     6     1
 -0.0056589960     1     2     6     4
 0.0013963837     1     2     6     6
 -0.0021344840     1     2     6     9
 -0.0032676265     1     2     6    10
 -0.0074762155     1     2     7     3
 0.0033839625     1     2     7     7
 -0.0026588903     1     2     7     8
 0.0054308147     1     2     8     3
 -0.0023405584     1     2     8     7
 0.0020092294     1     2     8     8
 0.0326141375     1     2     9     1
 0.0080103173     1     2     9     4
 -0.0014693188     1     2     9     6
 0.0039673880     1     2     9     9
 0.0046161725     1     2     9    10
 -0.1025720624     1     2    10     1
 0.0115957629     1     2    10     4
 -0.0026890340     1     2    10     6
 0.0052401415     1     2    10     9
 0.0064067402     1     2    10    10
 -0.0021495961     1     3     2     7
 0.0024379423     1     3     2     8
 -0.8709836122     1     3     3     1
 -0.0312350734     1     3     3     2
 0.0106084795     1     3     3     4
 0.0041363408     1     3     3     6
 0.0028432696     1     3     3     9
 0.0005854995     1     3     3    10
 -0.0009843757     1     3     4     7
 0.0039687189     1     3     4     8
 -0.0018500901     1     3     6     7
 -0.0004177810     1     3     6     8
 0.1348475551     1     3     7     1
 0.0074762155     1     3     7     2
 -0.0026544536     1     3     7     4
 -0.0035493029     1     3     7     6
 -0.0012123931     1     3     7     9
 0.0018666243     1     3     7    10
 -0.0694270552     1     3     8     1
 -0.0054308147     1     3     8     2
 0.0017289859     1     3     8     4
 0.0016926322     1     3     8     6
 -0.0010567599     1     3     8     9
 -0.0039783881     1     3     8    10
 -0.0009016529     1     3     9     7
 -0.0000376441     1     3     9     8
 0.0014230320     1     3    10     7
 -0.0018250818     1     3    10     8
 0.0674184744     1     4     2     1
 -0.0070379891     1     4     2     2
 0.0002017273     1     4     2     6
 0.0023329444     1     4     2     9
 0.0017100473     1     4     2    10
 -0.0106084795     1     4     3     3
 0.0018606068     1     4     3     7
 0.0021287702     1     4     3     8
 -0.9501312447     1     4     4     1
 -0.0360145932     1     4     4     2
 0.0080356751     1     4     4     6
 0.0007516570     1     4     4     9
 -0.0099778014     1     4     4    10
 -0.0136139298     1     4     5     5
 0.0598037758     1     4     6     1
 0.0056589960     1     4     6     2
 -0.0032211641     1     4     6     6
 0.0014385291     1     4     6     9
 0.0035130053     1     4     6    10
 0.0026544536     1     4     7     3
 -0.0020787374     1     4     7     7
 0.0009490695     1     4     7     8
 -0.0017289859     1     4     8     3
 0.0021477255     1     4     8     7
 -0.0012806295     1     4     8     8
 -0.1516451101     1     4     9     1
 -0.0080103173     1     4     9     2
 0.0041328519     1     4     9     6
 0.0009454321     1     4     9     9
 -0.0018221511     1     4     9    10
 -0.1474633351     1     4    10     1
 -0.0115957629     1     4    10     2
 0.0050960997     1     4    10     6
 0.0016931075     1     4    10     9
 -0.0067037702     1     4    10    10
 -0.9922161688     1     5     5     1
 -0.0405951432     1     5     5     2
 0.0136139298     1     5     5     4
 0.0077087341     1     5     5     6
 0.0074149885     1     5     5     9
 -0.0079518333     1     5     5    10
 0.1180853376     1     6     2     1
 0.0010959734     1     6     2     2
 -0.0002017273     1     6     2     4
 -0.0006734087     1     6     2     9
 -0.0005966900     1     6     2    10
 -0.0041363408     1     6     3     3
 0.0016757518     1     6     3     7
 -0.0021017634     1     6     3     8
 0.0598037758     1     6     4     1
 0.0060487944     1     6     4     2
 -0.0080356751     1     6     4     4
 -0.0026329381     1     6     4     9
 -0.0015906485     1     6     4    10
 -0.0077087341     1     6     5     5
 -0.3157295307     1     6     6     1
 -0.0013963837     1     6     6     2
 0.0032211641     1     6     6     4
 0.0008471424     1     6     6     9
 0.0008115352     1     6     6    10
 0.0035493029     1     6     7     3
 -0.0011588502     1     6     7     7
 0.0009938200     1     6     7     8
 -0.0016926322     1     6     8     3
 0.0003711327     1     6     8     7
 -0.0003403995     1     6     8     8
 0.0074573296     1     6     9     1
 0.0014693188     1     6     9     2
 -0.0041328519     1     6     9     4
 -0.0017592098     1     6     9     9
 -0.0016797381     1     6     9    10
 0.1154249936     1     6    10     1
 0.0026890340     1     6    10     2
 -0.0050960997     1     6    10     4
 -0.0022753230     1     6    10     9
 -0.0010697428     1     6    10    10
 0.0021495961     1     7     2     3
 -0.0003078572     1     7     2     8
 0.1348475551     1     7     3     1
 0.0104672902     1     7     3     2
 -0.0018606068     1     7     3     4
 -0.0016757518     1     7     3     6
 -0.0003804256     1     7     3     9
 0.0004015754     1     7     3    10
 0.0009843757     1     7     4     3
 -0.0012022361     1     7     4     8
 0.0018500901     1     7     6     3
 0.0006230154     1     7     6     8
 -0.2840709237     1     7     7     1
 -0.0033839625     1     7     7     2
 0.0020787374     1     7     7     4
 0.0011588502     1     7     7     6
 0.0007978641     1     7     7     9
 -0.0003295812     1     7     7    10
 0.0653574609     1     7     8     1
 0.0023405584     1     7     8     2
 -0.0021477255     1     7     8     4
 -0.0003711327     1     7     8     6
 -0.0001363105     1     7     8     9
 0.0008099255     1     7     8    10
 0.0009016529     1     7     9     3
 0.0002519393     1     7     9     8
 -0.0014230320     1     7    10     3
 0.0002761072     1     7    10     8
 -0.0024379423     1     8     2     3
 0.0003078572     1     8     2     7
 -0.0694270552     1     8     3     1
 -0.0084439046     1     8     3     2
 -0.0021287702     1     8     3     4
 0.0021017634     1     8     3     6
 -0.0009077420     1     8     3     9
 -0.0021190423     1     8     3    10
 -0.0039687189     1     8     4     3
 0.0012022361     1     8     4     7
 0.0004177810     1     8     6     3
 -0.0006230154     1     8     6     7
 0.0653574609     1     8     7     1
 0.0026588903     1     8     7     2
 -0.0009490695     1     8     7     4
 -0.0009938200     1     8     7     6
 -0.0003869780     1     8     7     9
 0.0005328072     1     8     7    10
 -0.3897348239     1     8     8     1
 -0.0020092294     1     8     8     2
 0.0012806295     1     8     8     4
 0.0003403995     1     8     8     6
 -0.0000232758     1     8     8     9
 -0.0007723740     1     8     8    10
 0.0000376441     1     8     9     3
 -0.0002519393     1     8     9     7
 0.0018250818     1     8    10     3
 -0.0002761072     1     8    10     7
 0.0326141375     1     9     2     1
 -0.0030402850     1     9     2     2
 -0.0023329444     1     9     2     4
 0.0006734087     1     9     2     6
 -0.0006602520     1     9     2    10
 -0.0028432696     1     9     3     3
 0.0003804256     1     9     3     7
 0.0009077420     1     9     3     8
 -0.1516451101     1     9     4     1
 -0.0112765070     1     9     4     2
 -0.0007516570     1     9     4     4
 0.0026329381     1     9     4     6
 -0.0034842200     1     9     4    10
 -0.0074149885     1     9     5     5
 0.0074573296     1     9     6     1
 0.0021344840     1     9     6     2
 -0.0014385291     1     9     6     4
 -0.0008471424     1     9     6     6
 0.0005987053     1     9     6    10
 0.0012123931     1     9     7     3
 -0.0007978641     1     9     7     7
 0.0003869780     1     9     7     8
 0.0010567599     1     9     8     3
 0.0001363105     1     9     8     7
 0.0000232758     1     9     8     8
 -0.3829083732     1     9     9     1
 -0.0039673880     1     9     9     2
 -0.0009454321     1     9     9     4
 0.0017592098     1     9     9     6
 -0.0012736088     1     9     9    10
 -0.0347895082     1     9    10     1
 -0.0052401415     1     9    10     2
 -0.0016931075     1     9    10     4
 0.0022753230     1     9    10     6
 -0.0032818947     1     9    10    10
 -0.1025720624     1    10     2     1
 -0.0034595010     1    10     2     2
 -0.0017100473     1    10     2     4
 0.0005966900     1    10     2     6
 0.0006602520     1    10     2     9
 -0.0005854995     1    10     3     3
 -0.0004015754     1    10     3     7
 0.0021190423     1    10     3     8
 -0.1474633351     1    10     4     1
 -0.0144973064     1    10     4     2
 0.0099778014     1    10     4     4
 0.0015906485     1    10     4     6
 0.0034842200     1    10     4     9
 0.0079518333     1    10     5     5
 0.1154249936     1    10     6     1
 0.0032676265     1    10     6     2
 -0.0035130053     1    10     6     4
 -0.0008115352     1    10     6     6
 -0.0005987053     1    10     6     9
 -0.0018666243     1    10     7     3
 0.0003295812     1    10     7     7
 -0.0005328072     1    10     7     8
 0.0039783881     1    10     8     3
 -0.0008099255     1    10     8     7
 0.0007723740     1    10     8     8
 -0.0347895082     1    10     9     1
 -0.0046161725     1    10     9     2
 0.0018221511     1    10     9     4
 0.0016797381     1    10     9     6
 0.0012736088     1    10     9     9
 -0.4571075476     1    10    10     1
 -0.0064067402     1    10    10     2
 0.0067037702     1    10    10     4
 0.0010697428     1    10    10     6
 0.0032818947     1    10    10     9
 -0.9841026044     2     1     1     2
 0.0674184744     2     1     1     4
 0.1180853376     2     1     1     6
 0.0326141375     2     1     1     9
 -0.1025720624     2     1     1    10
 0.0312350734     2     1     3     3
 -0.0074762155     2     1     3     7
 0.0054308147     2     1     3     8
 0.0070379891     2     1     4     2
 0.0360145932     2     1     4     4
 -0.0056589960     2     1     4     6
 0.0080103173     2     1     4     9
 0.0115957629     2     1     4    10
 0.0405951432     2     1     5     5
 -0.0010959734     2     1     6     2
 -0.0060487944     2     1     6     4
 0.0013963837     2     1     6     6
 -0.0014693188     2     1     6     9
 -0.0026890340     2     1     6    10
 -0.0104672902     2     1     7     3
 0.0033839625     2     1     7     7
 -0.0023405584     2     1     7     8
 0.0084439046     2     1     8     3
 -0.0026588903     2     1     8     7
 0.0020092294     2     1     8     8
 0.0030402850     2     1     9     2
 0.0112765070     2     1     9     4
 -0.0021344840     2     1     9     6
 0.0039673880     2     1     9     9
 0.0052401415     2     1     9    10
 0.0034595010     2     1    10     2
 0.0144973064     2     1    10     4
 -0.0032676265     2     1    10     6
 0.0046161725     2     1    10     9
 0.0064067402     2     1    10    10
 0.9841026044     2     2     1     1
 -0.0070379891     2     2     1     4
 0.0010959734     2     2     1     6
 -0.0030402850     2     2     1     9
 -0.0034595010     2     2     1    10
 0.5284886325     2     2     3     3
 -0.0553905915     2     2     3     7
 0.0127062298     2     2     3     8
 -0.0070379891     2     2     4     1
 0.5507712278     2     2     4     4
 -0.0255927452     2     2     4     6
 0.0611767980     2     2     4     9
 0.0552706669     2     2     4    10
 0.5759358689     2     2     5     5
 0.0010959734     2     2     6     1
 -0.0255927452     2     2     6     4
 0.2805800556     2     2     6     6
 -0.0079972870     2     2     6     9
 -0.0689256555     2     2     6    10
 -0.0553905915     2     2     7     3
 0.2557420407     2     2     7     7
 -0.0429858489     2     2     7     8
 0.0127062298     2     2     8     3
 -0.0429858489     2     2     8     7
 0.3579713051     2     2     8     8
 -0.0030402850     2     2     9     1
 0.0611767980     2     2     9     4
 -0.0079972870     2     2     9     6
 0.3321639015     2     2     9     9
 -0.0014817172     2     2     9    10
 -0.0034595010     2     2    10     1
 0.0552706669     2     2    10     4
 -0.0689256555     2     2    10     6
 -0.0014817172     2     2    10     9
 0.3783676726     2     2    10    10
 0.0021495961     2     3     1     7
 -0.0024379423     2     3     1     8
 -0.0312350734     2     3     3     1
 -0.5284886325     2     3     3     2
 0.0018855786     2     3     3     4
 0.0548622125     2     3     3     6
 0.0203540518     2     3     3     9
 -0.0623806453     2     3     3    10
 0.0081423556     2     3     4     7
 -0.0275660022     2     3     4     8
 0.0298476676     2     3     6     7
 0.0003673323     2     3     6     8
 0.0104672902     2     3     7     1
 0.0553905915     2     3     7     2
 0.0012584720     2     3     7     4
 0.0198051688     2     3     7     6
 0.0015510415     2     3     7     9
 -0.0047338181     2     3     7    10
 -0.0084439046     2     3     8     1
 -0.0127062298     2     3     8     2
 -0.0054317976     2     3     8     4
 0.0016526714     2     3     8     6
 0.0149390417     2     3     8     9
 0.0281093637     2     3     8    10
 0.0055909584     2     3     9     7
 0.0118202553     2     3     9     8
 -0.0158460119     2     3    10     7
 0.0268000356     2     3    10     8
 -0.0674184744     2     4     1     1
 0.0070379891     2     4     1     2
 -0.0002017273     2     4     1     6
 -0.0023329444     2     4     1     9
 -0.0017100473     2     4     1    10
 -0.0018855786     2     4     3     3
 0.0070939280     2     4     3     7
 -0.0223868906     2     4     3     8
 -0.0360145932     2     4     4     1
 -0.5507712278     2     4     4     2
 0.0537791273     2     4     4     6
 0.0054579765     2     4     4     9
 -0.0397977183     2     4     4    10
 -0.0042130765     2     4     5     5
 0.0060487944     2     4     6     1
 0.0255927452     2     4     6     2
 0.0097597164     2     4     6     6
 -0.0196234337     2     4     6     9
 -0.0080479117     2     4     6    10
 -0.0012584720     2     4     7     3
 0.0111803384     2     4     7     7
 -0.0054530683     2     4     7     8
 0.0054317976     2     4     8     3
 -0.0095136480     2     4     8     7
 -0.0009647334     2     4     8     8
 -0.0112765070     2     4     9     1
 -0.0611767980     2     4     9     2
 -0.0080801640     2     4     9     6
 -0.0103129072     2     4     9     9
 -0.0231048960     2     4     9    10
 -0.0144973064     2     4    10     1
 -0.0552706669     2     4    10     2
 -0.0018164207     2     4    10     6
 -0.0117461224     2     4    10     9
 0.0100986361     2     4    10    10
 -0.0405951432     2     5     5     1
 -0.5759358689     2     5     5     2
 0.0042130765     2     5     5     4
 0.0535627466     2     5     5     6
 -0.0007399801     2     5     5     9
 -0.0304908439     2     5     5    10
 -0.1180853376     2     6     1     1
 -0.0010959734     2     6     1     2
 0.0002017273     2     6     1     4
 0.0006734087     2     6     1     9
 0.0005966900     2     6     1    10
 -0.0548622125     2     6     3     3
 0.0096353893     2     6     3     7
 -0.0009500546     2     6     3     8
 0.0056589960     2     6     4     1
 0.0255927452     2     6     4     2
 -0.0537791273     2     6     4     4
 -0.0110243564     2     6     4     9
 -0.0061152701     2     6     4    10
 -0.0535627466     2     6     5     5
 -0.0013963837     2     6     6     1
 -0.2805800556     2     6     6     2
 -0.0097597164     2     6     6     4
 0.0017454052     2     6     6     9
 0.0049657157     2     6     6    10
 -0.0198051688     2     6     7     3
 -0.0053028140     2     6     7     7
 0.0078114087     2     6     7     8
 -0.0016526714     2     6     8     3
 0.0043812778     2     6     8     7
 -0.0175616489     2     6     8     8
 0.0021344840     2     6     9     1
 0.0079972870     2     6     9     2
 0.0080801640     2     6     9     4
 -0.0133881166     2     6     9     9
 0.0010984865     2     6     9    10
 0.0032676265     2     6    10     1
 0.0689256555     2     6    10     2
 0.0018164207     2     6    10     4
 -0.0001729498     2     6    10     9
 -0.0141325957     2     6    10    10
 -0.0021495961     2     7     1     3
 0.0003078572     2     7     1     8
 0.0074762155     2     7     3     1
 0.0553905915     2     7     3     2
 -0.0070939280     2     7     3     4
 -0.0096353893     2     7     3     6
 -0.0036751680     2     7     3     9
 0.0102699583     2     7     3    10
 -0.0081423556     2     7     4     3
 0.0037955885     2     7     4     8
 -0.0298476676     2     7     6     3
 0.0034314107     2     7     6     8
 -0.0033839625     2     7     7     1
 -0.2557420407     2     7     7     2
 -0.0111803384     2     7     7     4
 0.0053028140     2     7     7     6
 -0.0005887050     2     7     7     9
 0.0009197280     2     7     7    10
 0.0026588903     2     7     8     1
 0.0429858489     2     7     8     2
 0.0095136480     2     7     8     4
 -0.0043812778     2     7     8     6
 -0.0015732388     2     7     8     9
 0.0013376838     2     7     8    10
 -0.0055909584     2     7     9     3
 -0.0018194167     2     7     9     8
 0.0158460119     2     7    10     3
 -0.0037283140     2     7    10     8
 0.0024379423     2     8     1     3
 -0.0003078572     2     8     1     7
 -0.0054308147     2     8     3     1
 -0.0127062298     2     8     3     2
 0.0223868906     2     8     3     4
 0.0009500546     2     8     3     6
 0.0024346638     2     8     3     9
 0.0017323794     2     8     3    10
 0.0275660022     2     8     4     3
 -0.0037955885     2     8     4     7
 -0.0003673323     2     8     6     3
 -0.0034314107     2     8     6     7
 0.0023405584     2     8     7     1
 0.0429858489     2     8     7     2
 0.0054530683     2     8     7     4
 -0.0078114087     2     8     7     6
 0.0003327597     2     8     7     9
 0.0050957947     2     8     7    10
 -0.0020092294     2     8     8     1
 -0.3579713051     2     8     8     2
 0.0009647334     2     8     8     4
 0.0175616489     2     8     8     6
 0.0016559130     2     8     8     9
 -0.0087795623     2     8     8    10
 -0.0118202553     2     8     9     3
 0.0018194167     2     8     9     7
 -0.0268000356     2     8    10     3
 0.0037283140     2     8    10     7
 -0.0326141375     2     9     1     1
 0.0030402850     2     9     1     2
 0.0023329444     2     9     1     4
 -0.0006734087     2     9     1     6
 0.0006602520     2     9     1    10
 -0.0203540518     2     9     3     3
 0.0036751680     2     9     3     7
 -0.0024346638     2     9     3     8
 -0.0080103173     2     9     4     1
 -0.0611767980     2     9     4     2
 -0.0054579765     2     9     4     4
 0.0110243564     2     9     4     6
 -0.0104528138     2     9     4    10
 0.0007399801     2     9     5     5
 0.0014693188     2     9     6     1
 0.0079972870     2     9     6     2
 0.0196234337     2     9     6     4
 -0.0017454052     2     9     6     6
 0.0012947155     2     9     6    10
 -0.0015510415     2     9     7     3
 0.0005887050     2     9     7     7
 -0.0003327597     2     9     7     8
 -0.0149390417     2     9     8     3
 0.0015732388     2     9     8     7
 -0.0016559130     2     9     8     8
 -0.0039673880     2     9     9     1
 -0.3321639015     2     9     9     2
 0.0103129072     2     9     9     4
 0.0133881166     2     9     9     6
 -0.0075325138     2     9     9    10
 -0.0046161725     2     9    10     1
 0.0014817172     2     9    10     2
 0.0117461224     2     9    10     4
 0.0001729498     2     9    10     6
 -0.0016688287     2     9    10    10
 0.1025720624     2    10     1     1
 0.0034595010     2    10     1     2
 0.0017100473     2    10     1     4
 -0.0005966900     2    10     1     6
 -0.0006602520     2    10     1     9
 0.0623806453     2    10     3     3
 -0.0102699583     2    10     3     7
 -0.0017323794     2    10     3     8
 -0.0115957629     2    10     4     1
 -0.0552706669     2    10     4     2
 0.0397977183     2    10     4     4
 0.0061152701     2    10     4     6
 0.0104528138     2    10     4     9
 0.0304908439     2    10     5     5
 0.0026890340     2    10     6     1
 0.0689256555     2    10     6     2
 0.0080479117     2    10     6     4
 -0.0049657157     2    10     6     6
 -0.0012947155     2    10     6     9
 0.0047338181     2    10     7     3
 -0.0009197280     2    10     7     7
 -0.0050957947     2    10     7     8
 -0.0281093637     2    10     8     3
 -0.0013376838     2    10     8     7
 0.0087795623     2    10     8     8
 -0.0052401415     2    10     9     1
 0.0014817172     2    10     9     2
 0.0231048960     2    10     9     4
 -0.0010984865     2    10     9     6
 0.0075325138     2    10     9     9
 -0.0064067402     2    10    10     1
 -0.3783676726     2    10    10     2
 -0.0100986361     2    10    10     4
 0.0141325957     2    10    10     6
 0.0016688287     2    10    10     9
 -0.8709836122     3     1     1     3
 0.1348475551     3     1     1     7
 -0.0694270552     3     1     1     8
 -0.0312350734     3     1     2     3
 0.0074762155     3     1     2     7
 -0.0054308147     3     1     2     8
 0.0106084795     3     1     4     3
 -0.0026544536     3     1     4     7
 0.0017289859     3     1     4     8
 0.0041363408     3     1     6     3
 -0.0035493029     3     1     6     7
 0.0016926322     3     1     6     8
 -0.0021495961     3     1     7     2
 -0.0009843757     3     1     7     4
 -0.0018500901     3     1     7     6
 -0.0009016529     3     1     7     9
 0.0014230320     3     1     7    10
 0.0024379423     3     1     8     2
 0.0039687189     3     1     8     4
 -0.0004177810     3     1     8     6
 -0.0000376441     3     1     8     9
 -0.0018250818     3     1     8    10
 0.0028432696     3     1     9     3
 -0.0012123931     3     1     9     7
 -0.0010567599     3     1     9     8
 0.0005854995     3     1    10     3
 0.0018666243     3     1    10     7
 -0.0039783881     3     1    10     8
 -0.0312350734     3     2     1     3
 0.0104672902     3     2     1     7
 -0.0084439046     3     2     1     8
 -0.5284886325     3     2     2     3
 0.0553905915     3     2     2     7
 -0.0127062298     3     2     2     8
 0.0018855786     3     2     4     3
 0.0012584720     3     2     4     7
 -0.0054317976     3     2     4     8
 0.0548622125     3     2     6     3
 0.0198051688     3     2     6     7
 0.0016526714     3     2     6     8
 0.0021495961     3     2     7     1
 0.0081423556     3     2     7     4
 0.0298476676     3     2     7     6
 0.0055909584     3     2     7     9
 -0.0158460119     3     2     7    10
 -0.0024379423     3     2     8     1
 -0.0275660022     3     2     8     4
 0.0003673323     3     2     8     6
 0.0118202553     3     2     8     9
 0.0268000356     3     2     8    10
 0.0203540518     3     2     9     3
 0.0015510415     3     2     9     7
 0.0149390417     3     2     9     8
 -0.0623806453     3     2    10     3
 -0.0047338181     3     2    10     7
 0.0281093637     3     2    10     8
 0.8709836122     3     3     1     1
 0.0312350734     3     3     1     2
 -0.0106084795     3     3     1     4
 -0.0041363408     3     3     1     6
 -0.0028432696     3     3     1     9
 -0.0005854995     3     3     1    10
 0.0312350734     3     3     2     1
 0.5284886325     3     3     2     2
 -0.0018855786     3     3     2     4
 -0.0548622125     3     3     2     6
 -0.0203540518     3     3     2     9
 0.0623806453     3     3     2    10
 -0.0106084795     3     3     4     1
 -0.0018855786     3     3     4     2
 0.5631195088     3     3     4     4
 -0.0277111038     3     3     4     6
 0.0612797937     3     3     4     9
 0.0605454101     3     3     4    10
 0.5844259481     3     3     5     5
 -0.0041363408     3     3     6     1
 -0.0548622125     3     3     6     2
 -0.0277111038     3     3     6     4
 0.2837304696     3     3     6     6
 -0.0071391743     3     3     6     9
 -0.0711142192     3     3     6    10
 0.2459970704     3     3     7     7
 -0.0338320062     3     3     7     8
 -0.0338320062     3     3     8     7
 0.3403505618     3     3     8     8
 -0.0028432696     3     3     9     1
 -0.0203540518     3     3     9     2
 0.0612797937     3     3     9     4
 -0.0071391743     3     3     9     6
 0.3209785306     3     3     9     9
 0.0000986874     3     3     9    10
 -0.0005854995     3     3    10     1
 0.0623806453     3     3    10     2
 0.0605454101     3     3    10     4
 -0.0711142192     3     3    10     6
 0.0000986874     3     3    10     9
 0.3695680156     3     3    10    10
 0.0106084795     3     4     1     3
 -0.0018606068     3     4     1     7
 -0.0021287702     3     4     1     8
 0.0018855786     3     4     2     3
 -0.0070939280     3     4     2     7
 0.0223868906     3     4     2     8
 -0.5631195088     3     4     4     3
 0.0666436374     3     4     4     7
 -0.0319737777     3     4     4     8
 0.0277111038     3     4     6     3
 0.0009908078     3     4     6     7
 0.0007692964     3     4     6     8
 0.0009843757     3     4     7     1
 -0.0081423556     3     4     7     2
 0.0068743600     3     4     7     6
 -0.0035839895     3     4     7     9
 -0.0013138451     3     4     7    10
 -0.0039687189     3     4     8     1
 0.0275660022     3     4     8     2
 -0.0012529394     3     4     8     6
 0.0064789258     3     4     8     9
 -0.0048869812     3     4     8    10
 -0.0612797937     3     4     9     3
 0.0130598393     3     4     9     7
 -0.0097632812     3     4     9     8
 -0.0605454101     3     4    10     3
 0.0084134078     3     4    10     7
 0.0025333952     3     4    10     8
 -0.5844259481     3     5     5     3
 0.0701385797     3     5     5     7
 -0.0248022234     3     5     5     8
 0.0041363408     3     6     1     3
 -0.0016757518     3     6     1     7
 0.0021017634     3     6     1     8
 0.0548622125     3     6     2     3
 -0.0096353893     3     6     2     7
 0.0009500546     3     6     2     8
 0.0277111038     3     6     4     3
 -0.0054456402     3     6     4     7
 0.0018375412     3     6     4     8
 -0.2837304696     3     6     6     3
 0.0206989158     3     6     6     7
 0.0100749896     3     6     6     8
 0.0018500901     3     6     7     1
 -0.0298476676     3     6     7     2
 -0.0068743600     3     6     7     4
 -0.0090776028     3     6     7     9
 0.0191490558     3     6     7    10
 0.0004177810     3     6     8     1
 -0.0003673323     3     6     8     2
 0.0012529394     3     6     8     4
 0.0044293741     3     6     8     9
 0.0073436027     3     6     8    10
 0.0071391743     3     6     9     3
 0.0034715546     3     6     9     7
 -0.0065286533     3     6     9     8
 0.0711142192     3     6    10     3
 -0.0112229500     3     6    10     7
 0.0032016984     3     6    10     8
 -0.1348475551     3     7     1     1
 -0.0104672902     3     7     1     2
 0.0018606068     3     7     1     4
 0.0016757518     3     7     1     6
 0.0003804256     3     7     1     9
 -0.0004015754     3     7     1    10
 -0.0074762155     3     7     2     1
 -0.0553905915     3     7     2     2
 0.0070939280     3     7     2     4
 0.0096353893     3     7     2     6
 0.0036751680     3     7     2     9
 -0.0102699583     3     7     2    10
 0.0026544536     3     7     4     1
 -0.0012584720     3     7     4     2
 -0.0666436374     3     7     4     4
 0.0054456402     3     7     4     6
 -0.0161162203     3     7     4     9
 -0.0089590816     3     7     4    10
 -0.0701385797     3     7     5     5
 0.0035493029     3     7     6     1
 -0.0198051688     3     7     6     2