&FCI NORB= 10,NELEC= 10,MS2=0,
 ORBSYM=1,1,1,1,1,1,1,1,1,1
 ISYM=1,
&END
 0.9849787887     1     1     2     2
 0.0666274363     1     1     2     4
 -0.1005130175     1     1     2     6
 -0.0504492053     1     1     2     8
 0.8720454279     1     1     3     3
 -0.1090378910     1     1     3     7
 -0.0401952601     1     1     3     9
 0.0666274363     1     1     4     2
 0.9485378359     1     1     4     4
 0.0528686992     1     1     4     6
 -0.1155317404     1     1     4     8
 0.9953721797     1     1     5     5
 -0.2072392924     1     1     5    10
 -0.1005130175     1     1     6     2
 0.0528686992     1     1     6     4
 0.2798898050     1     1     6     6
 0.0147067079     1     1     6     8
 -0.1090378910     1     1     7     3
 0.2411543998     1     1     7     7
 0.0305901710     1     1     7     9
 -0.0504492053     1     1     8     2
 -0.1155317404     1     1     8     4
 0.0147067079     1     1     8     6
 0.3091137504     1     1     8     8
 -0.0401952601     1     1     9     3
 0.0305901710     1     1     9     7
 0.3143487602     1     1     9     9
 -0.2072392924     1     1    10     5
 0.3961335835     1     1    10    10
 -0.9849787887     1     2     2     1
 -0.0071010977     1     2     2     4
 -0.0009558793     1     2     2     6
 0.0021446951     1     2     2     8
 0.0313295971     1     2     3     3
 -0.0082971790     1     2     3     7
 -0.0051103001     1     2     3     9
 -0.0666274363     1     2     4     1
 0.0359856018     1     2     4     4
 0.0052578840     1     2     4     6
 -0.0075932152     1     2     4     8
 0.0408456568     1     2     5     5
 -0.0164183535     1     2     5    10
 0.1005130175     1     2     6     1
 0.0048880136     1     2     6     4
 0.0010041632     1     2     6     6
 -0.0011418065     1     2     6     8
 -0.0059637129     1     2     7     3
 0.0021130120     1     2     7     7
 0.0012086600     1     2     7     9
 0.0504492053     1     2     8     1
 -0.0053656803     1     2     8     4
 -0.0007599853     1     2     8     6
 0.0020771304     1     2     8     8
 -0.0033318579     1     2     9     3
 0.0010564129     1     2     9     7
 0.0008743815     1     2     9     9
 -0.0122205310     1     2    10     5
 0.0072216746     1     2    10    10
 -0.0016456257     1     3     2     7
 -0.0014274785     1     3     2     9
 -0.8720454279     1     3     3     1
 -0.0313295971     1     3     3     2
 -0.0106194920     1     3     3     4
 0.0035463780     1     3     3     6
 0.0036665876     1     3     3     8
 0.0006732751     1     3     4     7
 0.0027768460     1     3     4     9
 -0.0015058169     1     3     6     7
 0.0003177224     1     3     6     9
 0.1090378910     1     3     7     1
 0.0059637129     1     3     7     2
 0.0020500918     1     3     7     4
 -0.0026452787     1     3     7     6
 -0.0014099194     1     3     7     8
 -0.0007601907     1     3     8     7
 0.0007650955     1     3     8     9
 0.0401952601     1     3     9     1
 0.0033318579     1     3     9     2
 0.0010482360     1     3     9     4
 -0.0008446879     1     3     9     6
 0.0009930245     1     3     9     8
 -0.0666274363     1     4     2     1
 0.0071010977     1     4     2     2
 -0.0001578698     1     4     2     6
 -0.0015827748     1     4     2     8
 0.0106194920     1     4     3     3
 -0.0015272894     1     4     3     7
 0.0017054679     1     4     3     9
 -0.9485378359     1     4     4     1
 -0.0359856018     1     4     4     2
 0.0067576150     1     4     4     6
 0.0024215790     1     4     4     8
 0.0136749641     1     4     5     5
 -0.0052192575     1     4     5    10
 -0.0528686992     1     4     6     1
 -0.0048880136     1     4     6     2
 0.0025884945     1     4     6     6
 -0.0007184775     1     4     6     8
 -0.0020500918     1     4     7     3
 0.0014457386     1     4     7     7
 0.0007792347     1     4     7     9
 0.1155317404     1     4     8     1
 0.0053656803     1     4     8     2
 -0.0025061688     1     4     8     6
 -0.0018123423     1     4     8     8
 -0.0010482360     1     4     9     3
 0.0014911628     1     4     9     7
 -0.0001123666     1     4     9     9
 -0.0041800556     1     4    10     5
 0.0022353669     1     4    10    10
 -0.0028084806     1     5     2    10
 -0.0006687180     1     5     4    10
 -0.9953721797     1     5     5     1
 -0.0408456568     1     5     5     2
 -0.0136749641     1     5     5     4
 0.0063139203     1     5     5     6
 0.0071209265     1     5     5     8
 -0.0021069891     1     5     6    10
 0.0001788158     1     5     8    10
 0.2072392924     1     5    10     1
 0.0122205310     1     5    10     2
 0.0041800556     1     5    10     4
 -0.0047735250     1     5    10     6
 -0.0027516787     1     5    10     8
 0.1005130175     1     6     2     1
 0.0009558793     1     6     2     2
 0.0001578698     1     6     2     4
 -0.0003996188     1     6     2     8
 -0.0035463780     1     6     3     3
 0.0011449880     1     6     3     7
 0.0011822772     1     6     3     9
 -0.0528686992     1     6     4     1
 -0.0052578840     1     6     4     2
 -0.0067576150     1     6     4     4
 0.0017903209     1     6     4     8
 -0.0063139203     1     6     5     5
 0.0025800980     1     6     5    10
 -0.2798898050     1     6     6     1
 -0.0010041632     1     6     6     2
 -0.0025884945     1     6     6     4
 0.0004757648     1     6     6     8
 0.0026452787     1     6     7     3
 -0.0006553710     1     6     7     7
 -0.0003772318     1     6     7     9
 -0.0147067079     1     6     8     1
 0.0007599853     1     6     8     2
 0.0025061688     1     6     8     4
 -0.0009703715     1     6     8     8
 0.0008446879     1     6     9     3
 -0.0000542548     1     6     9     7
 -0.0002010378     1     6     9     9
 0.0047735250     1     6    10     5
 -0.0022703659     1     6    10    10
 0.0016456257     1     7     2     3
 0.0001406881     1     7     2     9
 0.1090378910     1     7     3     1
 0.0082971790     1     7     3     2
 0.0015272894     1     7     3     4
 -0.0011449880     1     7     3     6
 -0.0006852148     1     7     3     8
 -0.0006732751     1     7     4     3
 -0.0006987117     1     7     4     9
 0.0015058169     1     7     6     3
 -0.0003223329     1     7     6     9
 -0.2411543998     1     7     7     1
 -0.0021130120     1     7     7     2
 -0.0014457386     1     7     7     4
 0.0006553710     1     7     7     6
 0.0005995086     1     7     7     8
 0.0007601907     1     7     8     3
 -0.0003342524     1     7     8     9
 -0.0305901710     1     7     9     1
 -0.0010564129     1     7     9     2
 -0.0014911628     1     7     9     4
 0.0000542548     1     7     9     6
 -0.0000047049     1     7     9     8
 0.0504492053     1     8     2     1
 -0.0021446951     1     8     2     2
 0.0015827748     1     8     2     4
 0.0003996188     1     8     2     6
 -0.0036665876     1     8     3     3
 0.0006852148     1     8     3     7
 -0.0001646438     1     8     3     9
 0.1155317404     1     8     4     1
 0.0075932152     1     8     4     2
 -0.0024215790     1     8     4     4
 -0.0017903209     1     8     4     6
 -0.0071209265     1     8     5     5
 0.0028887511     1     8     5    10
 -0.0147067079     1     8     6     1
 0.0011418065     1     8     6     2
 0.0007184775     1     8     6     4
 -0.0004757648     1     8     6     6
 0.0014099194     1     8     7     3
 -0.0005995086     1     8     7     7
 -0.0003296141     1     8     7     9
 -0.3091137504     1     8     8     1
 -0.0020771304     1     8     8     2
 0.0018123423     1     8     8     4
 0.0009703715     1     8     8     6
 -0.0009930245     1     8     9     3
 0.0000047049     1     8     9     7
 0.0002250197     1     8     9     9
 0.0027516787     1     8    10     5
 -0.0013268830     1     8    10    10
 0.0014274785     1     9     2     3
 -0.0001406881     1     9     2     7
 0.0401952601     1     9     3     1
 0.0051103001     1     9     3     2
 -0.0017054679     1     9     3     4
 -0.0011822772     1     9     3     6
 0.0001646438     1     9     3     8
 -0.0027768460     1     9     4     3
 0.0006987117     1     9     4     7
 -0.0003177224     1     9     6     3
 0.0003223329     1     9     6     7
 -0.0305901710     1     9     7     1
 -0.0012086600     1     9     7     2
 -0.0007792347     1     9     7     4
 0.0003772318     1     9     7     6
 0.0003296141     1     9     7     8
 -0.0007650955     1     9     8     3
 0.0003342524     1     9     8     7
 -0.3143487602     1     9     9     1
 -0.0008743815     1     9     9     2
 0.0001123666     1     9     9     4
 0.0002010378     1     9     9     6
 -0.0002250197     1     9     9     8
 0.0028084806     1    10     2     5
 0.0006687180     1    10     4     5
 0.2072392924     1    10     5     1
 0.0164183535     1    10     5     2
 0.0052192575     1    10     5     4
 -0.0025800980     1    10     5     6
 -0.0028887511     1    10     5     8
 0.0021069891     1    10     6     5
 -0.0001788158     1    10     8     5
 -0.3961335835     1    10    10     1
 -0.0072216746     1    10    10     2
 -0.0022353669     1    10    10     4
 0.0022703659     1    10    10     6
 0.0013268830     1    10    10     8
 -0.9849787887     2     1     1     2
 -0.0666274363     2     1     1     4
 0.1005130175     2     1     1     6
 0.0504492053     2     1     1     8
 0.0313295971     2     1     3     3
 -0.0059637129     2     1     3     7
 -0.0033318579     2     1     3     9
 -0.0071010977     2     1     4     2
 0.0359856018     2     1     4     4
 0.0048880136     2     1     4     6
 -0.0053656803     2     1     4     8
 0.0408456568     2     1     5     5
 -0.0122205310     2     1     5    10
 -0.0009558793     2     1     6     2
 0.0052578840     2     1     6     4
 0.0010041632     2     1     6     6
 -0.0007599853     2     1     6     8
 -0.0082971790     2     1     7     3
 0.0021130120     2     1     7     7
 0.0010564129     2     1     7     9
 0.0021446951     2     1     8     2
 -0.0075932152     2     1     8     4
 -0.0011418065     2     1     8     6
 0.0020771304     2     1     8     8
 -0.0051103001     2     1     9     3
 0.0012086600     2     1     9     7
 0.0008743815     2     1     9     9
 -0.0164183535     2     1    10     5
 0.0072216746     2     1    10    10
 0.9849787887     2     2     1     1
 0.0071010977     2     2     1     4
 0.0009558793     2     2     1     6
 -0.0021446951     2     2     1     8
 0.5291172155     2     2     3     3
 -0.0464208991     2     2     3     7
 -0.0057017477     2     2     3     9
 0.0071010977     2     2     4     1
 0.5503259604     2     2     4     4
 0.0226944893     2     2     4     6
 -0.0499021779     2     2     4     8
 0.5774478366     2     2     5     5
 -0.0871420577     2     2     5    10
 0.0009558793     2     2     6     1
 0.0226944893     2     2     6     4
 0.2554950998     2     2     6     6
 0.0070545279     2     2     6     8
 -0.0464208991     2     2     7     3
 0.2243025619     2     2     7     7
 0.0223207055     2     2     7     9
 -0.0021446951     2     2     8     1
 -0.0499021779     2     2     8     4
 0.0070545279     2     2     8     6
 0.2740272543     2     2     8     8
 -0.0057017477     2     2     9     3
 0.0223207055     2     2     9     7
 0.2971764561     2     2     9     9
 -0.0871420577     2     2    10     5
 0.3243629361     2     2    10    10
 0.0016456257     2     3     1     7
 0.0014274785     2     3     1     9
 -0.0313295971     2     3     3     1
 -0.5291172155     2     3     3     2
 -0.0016982953     2     3     3     4
 0.0467540240     2     3     3     6
 0.0236319505     2     3     3     8
 -0.0056063150     2     3     4     7
 -0.0195475014     2     3     4     9
 0.0247041645     2     3     6     7
 0.0000608145     2     3     6     9
 0.0082971790     2     3     7     1
 0.0464208991     2     3     7     2
 -0.0011891399     2     3     7     4
 0.0176932525     2     3     7     6
 0.0030888520     2     3     7     8
 0.0070832222     2     3     8     7
 -0.0153080514     2     3     8     9
 0.0051103001     2     3     9     1
 0.0057017477     2     3     9     2
 -0.0035948927     2     3     9     4
 -0.0002040341     2     3     9     6
 -0.0175591448     2     3     9     8
 0.0666274363     2     4     1     1
 -0.0071010977     2     4     1     2
 0.0001578698     2     4     1     6
 0.0015827748     2     4     1     8
 0.0016982953     2     4     3     3
 -0.0046728816     2     4     3     7
 -0.0159231079     2     4     3     9
 -0.0359856018     2     4     4     1
 -0.5503259604     2     4     4     2
 0.0467627132     2     4     4     6
 0.0165414468     2     4     4     8
 0.0038183980     2     4     5     5
 -0.0020973214     2     4     5    10
 -0.0052578840     2     4     6     1
 -0.0226944893     2     4     6     2
 -0.0098900366     2     4     6     6
 0.0157787522     2     4     6     8
 0.0011891399     2     4     7     3
 -0.0091668825     2     4     7     7
 -0.0078572805     2     4     7     9
 0.0075932152     2     4     8     1
 0.0499021779     2     4     8     2
 0.0070466466     2     4     8     6
 0.0146507839     2     4     8     8
 0.0035948927     2     4     9     3
 -0.0102198030     2     4     9     7
 0.0078860332     2     4     9     9
 -0.0006980552     2     4    10     5
 0.0064313963     2     4    10    10
 0.0028084806     2     5     1    10
 -0.0007558119     2     5     4    10
 -0.0408456568     2     5     5     1
 -0.5774478366     2     5     5     2
 -0.0038183980     2     5     5     4
 0.0461443381     2     5     5     6
 0.0119066584     2     5     5     8
 0.0216790652     2     5     6    10
 -0.0002874878     2     5     8    10
 0.0164183535     2     5    10     1
 0.0871420577     2     5    10     2
 0.0006980552     2     5    10     4
 0.0091158933     2     5    10     6
 -0.0045842931     2     5    10     8
 -0.1005130175     2     6     1     1
 -0.0009558793     2     6     1     2
 -0.0001578698     2     6     1     4
 0.0003996188     2     6     1     8
 -0.0467540240     2     6     3     3
 0.0070573082     2     6     3     7
 -0.0000058567     2     6     3     9
 -0.0048880136     2     6     4     1
 -0.0226944893     2     6     4     2
 -0.0467627132     2     6     4     4
 0.0087230062     2     6     4     8
 -0.0461443381     2     6     5     5
 0.0124719111     2     6     5    10
 -0.0010041632     2     6     6     1
 -0.2554950998     2     6     6     2
 0.0098900366     2     6     6     4
 0.0010040945     2     6     6     8
 -0.0176932525     2     6     7     3
 -0.0032374062     2     6     7     7
 -0.0035021430     2     6     7     9
 0.0011418065     2     6     8     1
 -0.0070545279     2     6     8     2
 -0.0070466466     2     6     8     4
 -0.0065720519     2     6     8     8
 0.0002040341     2     6     9     3
 -0.0019193156     2     6     9     7
 -0.0098744595     2     6     9     9
 -0.0091158933     2     6    10     5
 -0.0110667653     2     6    10    10
 -0.0016456257     2     7     1     3
 -0.0001406881     2     7     1     9
 0.0059637129     2     7     3     1
 0.0464208991     2     7     3     2
 0.0046728816     2     7     3     4
 -0.0070573082     2     7     3     6
 -0.0039054586     2     7     3     8
 0.0056063150     2     7     4     3
 0.0021498053     2     7     4     9
 -0.0247041645     2     7     6     3
 -0.0015779216     2     7     6     9
 -0.0021130120     2     7     7     1
 -0.2243025619     2     7     7     2
 0.0091668825     2     7     7     4
 0.0032374062     2     7     7     6
 -0.0000501454     2     7     7     8
 -0.0070832222     2     7     8     3
 0.0013910099     2     7     8     9
 -0.0012086600     2     7     9     1
 -0.0223207055     2     7     9     2
 0.0102198030     2     7     9     4
 0.0019193156     2     7     9     6
 0.0012888746     2     7     9     8
 -0.0504492053     2     8     1     1
 0.0021446951     2     8     1     2
 -0.0015827748     2     8     1     4
 -0.0003996188     2     8     1     6
 -0.0236319505     2     8     3     3
 0.0039054586     2     8     3     7
 0.0017858032     2     8     3     9
 0.0053656803     2     8     4     1
 0.0499021779     2     8     4     2
 -0.0165414468     2     8     4     4
 -0.0087230062     2     8     4     6
 -0.0119066584     2     8     5     5
 0.0044690966     2     8     5    10
 0.0007599853     2     8     6     1
 -0.0070545279     2     8     6     2
 -0.0157787522     2     8     6     4
 -0.0010040945     2     8     6     6
 -0.0030888520     2     8     7     3
 0.0000501454     2     8     7     7
 0.0001287604     2     8     7     9
 -0.0020771304     2     8     8     1
 -0.2740272543     2     8     8     2
 -0.0146507839     2     8     8     4
 0.0065720519     2     8     8     6
 0.0175591448     2     8     9     3
 -0.0012888746     2     8     9     7
 -0.0034513534     2     8     9     9
 0.0045842931     2     8    10     5
 -0.0043664241     2     8    10    10
 -0.0014274785     2     9     1     3
 0.0001406881     2     9     1     7
 0.0033318579     2     9     3     1
 0.0057017477     2     9     3     2
 0.0159231079     2     9     3     4
 0.0000058567     2     9     3     6
 -0.0017858032     2     9     3     8
 0.0195475014     2     9     4     3
 -0.0021498053     2     9     4     7
 -0.0000608145     2     9     6     3
 0.0015779216     2     9     6     7
 -0.0010564129     2     9     7     1
 -0.0223207055     2     9     7     2
 0.0078572805     2     9     7     4
 0.0035021430     2     9     7     6
 -0.0001287604     2     9     7     8
 0.0153080514     2     9     8     3
 -0.0013910099     2     9     8     7
 -0.0008743815     2     9     9     1
 -0.2971764561     2     9     9     2
 -0.0078860332     2     9     9     4
 0.0098744595     2     9     9     6
 0.0034513534     2     9     9     8
 -0.0028084806     2    10     1     5
 0.0007558119     2    10     4     5
 0.0122205310     2    10     5     1
 0.0871420577     2    10     5     2
 0.0020973214     2    10     5     4
 -0.0124719111     2    10     5     6
 -0.0044690966     2    10     5     8
 -0.0216790652     2    10     6     5
 0.0002874878     2    10     8     5
 -0.0072216746     2    10    10     1
 -0.3243629361     2    10    10     2
 -0.0064313963     2    10    10     4
 0.0110667653     2    10    10     6
 0.0043664241     2    10    10     8
 -0.8720454279     3     1     1     3
 0.1090378910     3     1     1     7
 0.0401952601     3     1     1     9
 -0.0313295971     3     1     2     3
 0.0059637129     3     1     2     7
 0.0033318579     3     1     2     9
 -0.0106194920     3     1     4     3
 0.0020500918     3     1     4     7
 0.0010482360     3     1     4     9
 0.0035463780     3     1     6     3
 -0.0026452787     3     1     6     7
 -0.0008446879     3     1     6     9
 -0.0016456257     3     1     7     2
 0.0006732751     3     1     7     4
 -0.0015058169     3     1     7     6
 -0.0007601907     3     1     7     8
 0.0036665876     3     1     8     3
 -0.0014099194     3     1     8     7
 0.0009930245     3     1     8     9
 -0.0014274785     3     1     9     2
 0.0027768460     3     1     9     4
 0.0003177224     3     1     9     6
 0.0007650955     3     1     9     8
 -0.0313295971     3     2     1     3
 0.0082971790     3     2     1     7
 0.0051103001     3     2     1     9
 -0.5291172155     3     2     2     3
 0.0464208991     3     2     2     7
 0.0057017477     3     2     2     9
 -0.0016982953     3     2     4     3
 -0.0011891399     3     2     4     7
 -0.0035948927     3     2     4     9
 0.0467540240     3     2     6     3
 0.0176932525     3     2     6     7
 -0.0002040341     3     2     6     9
 0.0016456257     3     2     7     1
 -0.0056063150     3     2     7     4
 0.0247041645     3     2     7     6
 0.0070832222     3     2     7     8
 0.0236319505     3     2     8     3
 0.0030888520     3     2     8     7
 -0.0175591448     3     2     8     9
 0.0014274785     3     2     9     1
 -0.0195475014     3     2     9     4
 0.0000608145     3     2     9     6
 -0.0153080514     3     2     9     8
 0.8720454279     3     3     1     1
 0.0313295971     3     3     1     2
 0.0106194920     3     3     1     4
 -0.0035463780     3     3     1     6
 -0.0036665876     3     3     1     8
 0.0313295971     3     3     2     1
 0.5291172155     3     3     2     2
 0.0016982953     3     3     2     4
 -0.0467540240     3     3     2     6
 -0.0236319505     3     3     2     8
 0.0106194920     3     3     4     1
 0.0016982953     3     3     4     2
 0.5626452190     3     3     4     4
 0.0251253035     3     3     4     6
 -0.0507008833     3     3     4     8
 0.5860941666     3     3     5     5
 -0.0897877115     3     3     5    10
 -0.0035463780     3     3     6     1
 -0.0467540240     3     3     6     2
 0.0251253035     3     3     6     4
 0.2579849326     3     3     6     6
 0.0082024331     3     3     6     8
 0.2190773942     3     3     7     7
 0.0184203335     3     3     7     9
 -0.0036665876     3     3     8     1
 -0.0236319505     3     3     8     2
 -0.0507008833     3     3     8     4
 0.0082024331     3     3     8     6
 0.2684003351     3     3     8     8
 0.0184203335     3     3     9     7
 0.2878835956     3     3     9     9
 -0.0897877115     3     3    10     5
 0.3147160148     3     3    10    10
 -0.0106194920     3     4     1     3
 0.0015272894     3     4     1     7
 -0.0017054679     3     4     1     9
 -0.0016982953     3     4     2     3
 0.0046728816     3     4     2     7
 0.0159231079     3     4     2     9
 -0.5626452190     3     4     4     3
 0.0554054492     3     4     4     7
 0.0193252260     3     4     4     9
 -0.0251253035     3     4     6     3
 -0.0017244602     3     4     6     7
 -0.0010701877     3     4     6     9
 -0.0006732751     3     4     7     1
 0.0056063150     3     4     7     2
 -0.0061445785     3     4     7     6
 0.0018495316     3     4     7     8
 0.0507008833     3     4     8     3
 -0.0080770661     3     4     8     7
 -0.0043976305     3     4     8     9
 -0.0027768460     3     4     9     1
 0.0195475014     3     4     9     2
 -0.0023262405     3     4     9     6
 0.0025396585     3     4     9     8
 -0.5860941666     3     5     5     3
 0.0565440756     3     5     5     7
 0.0138074176     3     5     5     9
 0.0025071709     3     5     7    10
 -0.0012567811     3     5     9    10
 0.0897877115     3     5    10     3
 -0.0136765702     3     5    10     7
 -0.0068486139     3     5    10     9
 0.0035463780     3     6     1     3
 -0.0011449880     3     6     1     7
 -0.0011822772     3     6     1     9
 0.0467540240     3     6     2     3
 -0.0070573082     3     6     2     7
 0.0000058567     3     6     2     9
 -0.0251253035     3     6     4     3
 0.0047283869     3     6     4     7
 0.0010819842     3     6     4     9
 -0.2579849326     3     6     6     3
 0.0147137465     3     6     6     7
 -0.0072520046     3     6     6     9
 0.0015058169     3     6     7     1
 -0.0247041645     3     6     7     2
 0.0061445785     3     6     7     4
 -0.0060311602     3     6     7     8
 -0.0082024331     3     6     8     3
 0.0038459622     3     6     8     7
 0.0023892257     3     6     8     9
 -0.0003177224     3     6     9     1
 -0.0000608145     3     6     9     2
 0.0023262405     3     6     9     4
 -0.0047855394     3     6     9     8
 -0.1090378910     3     7     1     1
 -0.0082971790     3     7     1     2
 -0.0015272894     3     7     1     4
 0.0011449880     3     7     1     6
 0.0006852148     3     7     1     8
 -0.0059637129     3     7     2     1
 -0.0464208991     3     7     2     2
 -0.0046728816     3     7     2     4
 0.0070573082     3     7     2     6
 0.0039054586     3     7     2     8
 -0.0020500918     3     7     4     1
 0.0011891399     3     7     4     2
 -0.0554054492     3     7     4     4
 -0.0047283869     3     7     4     6
 0.0100873862     3     7     4     8
 -0.0565440756     3     7     5     5
 0.0159479304     3     7     5    10
 0.0026452787     3     7     6     1
 -0.0176932525     3     7     6     2
 0.0017244602     3     7     6     4
 -0.0147137465     3     7     6     6
 -0.0098707644     3     7     6     8
 -0.2190773942     3     7     7     3
 -0.0066606215     3     7     7     9
 0.0014099194     3     7     8     1
 -0.0030888520     3     7     8     2
 0.0080770661     3     7     8     4
 -0.0038459622     3     7     8     6
 -0.0137511129     3     7     8     8
 -0.0184203335     3     7     9     3
 -0.0168853861     3     7     9     9
 0.0136765702     3     7    10     5
 -0.0171952032     3     7    10    10
 0.0036665876     3     8     1     3
 -0.0006852148     3     8     1     7
 0.0001646438     3     8     1     9
 0.0236319505     3     8     2     3
 -0.0039054586     3     8     2     7
 -0.0017858032     3     8     2     9
 0.0507008833     3     8     4     3
 -0.0100873862     3     8     4     7
 -0.0066337012     3     8     4     9
 -0.0082024331     3     8     6     3
 0.0098707644     3     8     6     7
 0.0071414404     3     8     6     9
 0.0007601907     3     8     7     1
 -0.0070832222     3     8     7     2
 -0.0018495316     3     8     7     4
 0.0060311602     3     8     7     6
 -0.2684003351     3     8     8     3
 0.0137511129     3     8     8     7
 0.0033217149     3     8     8     9
 -0.0007650955     3     8     9     1
 0.0153080514     3     8     9     2
 -0.0025396585     3     8     9     4
 0.0047855394     3     8     9     6
 -0.0401952601     3     9     1     1
 -0.0051103001     3     9     1     2
 0.0017054679     3     9     1     4
 0.0011822772     3     9     1     6
 -0.0001646438     3     9     1     8
 -0.0033318579     3     9     2     1
 -0.0057017477     3     9     2     2
 -0.0159231079     3     9     2     4
 -0.0000058567     3     9     2     6
 0.0017858032     3     9     2     8
 -0.0010482360     3     9     4     1
 0.0035948927     3     9     4     2
 -0.0193252260     3     9     4     4
 -0.0010819842     3     9     4     6
 0.0066337012     3     9     4     8
 -0.0138074176     3     9     5     5
 0.0051961130     3     9     5    10
 0.0008446879     3     9     6     1
 0.0002040341     3     9     6     2
 0.0010701877     3     9     6     4
 0.0072520046     3     9     6     6
 -0.0071414404     3     9     6     8
 -0.0184203335     3     9     7     3
 0.0066606215     3     9     7     7
 -0.0009930245     3     9     8     1
 0.0175591448     3     9     8     2
 0.0043976305     3     9     8     4
 -0.0023892257     3     9     8     6
 -0.0033217149     3     9     8     8
 -0.2878835956     3     9     9     3
 0.0168853861     3     9     9     7
 0.0068486139     3     9    10     5
 -0.0044340781     3     9    10    10
 0.0897877115     3    10     5     3
 -0.0159479304     3    10     5     7
 -0.0051961130     3    10     5     9
 -0.0025071709     3    10     7     5
 0.0012567811     3    10     9     5
 -0.3147160148     3    10    10     3
 0.0171952032     3    10    10     7
 0.0044340781     3    10    10     9
 -0.0666274363     4     1     1     2
 -0.9485378359     4     1     1     4
 -0.0528686992     4     1     1     6
 0.1155317404     4     1     1     8
 0.0071010977     4     1     2     2
 -0.0359856018     4     1     2     4
 -0.0048880136     4     1     2     6
 0.0053656803     4     1     2     8
 0.0106194920     4     1     3     3
 -0.0020500918     4     1     3     7
 -0.0010482360     4     1     3     9
 0.0136749641     4     1     5     5
 -0.0041800556     4     1     5    10
 -0.0001578698     4     1     6     2
 0.0067576150     4     1     6     4
 0.0025884945     4     1     6     6
 -0.0025061688     4     1     6     8
 -0.0015272894     4     1     7     3
 0.0014457386     4     1     7     7
 0.0014911628     4     1     7     9
 -0.0015827748     4     1     8     2
 0.0024215790     4     1     8     4
 -0.0007184775     4     1     8     6
 -0.0018123423     4     1     8     8
 0.0017054679     4     1     9     3
 0.0007792347     4     1     9     7
 -0.0001123666     4     1     9     9
 -0.0052192575     4     1    10     5
 0.0022353669     4     1    10    10
 0.0666274363     4     2     1     1
 -0.0359856018     4     2     1     4
 -0.0052578840     4     2     1     6
 0.0075932152     4     2     1     8
 -0.0071010977     4     2     2     1
 -0.5503259604     4     2     2     4
 -0.0226944893     4     2     2     6
 0.0499021779     4     2     2     8
 0.0016982953     4     2     3     3
 0.0011891399     4     2     3     7
 0.0035948927     4     2     3     9
 0.0038183980     4     2     5     5
 -0.0006980552     4     2     5    10
 0.0001578698     4     2     6     1
 0.0467627132     4     2     6     4
 -0.0098900366     4     2     6     6
 0.0070466466     4     2     6     8
 -0.0046728816     4     2     7     3
 -0.0091668825     4     2     7     7
 -0.0102198030     4     2     7     9
 0.0015827748     4     2     8     1
 0.0165414468     4     2     8     4
 0.0157787522     4     2     8     6
 0.0146507839     4     2     8     8
 -0.0159231079     4     2     9     3
 -0.0078572805     4     2     9     7
 0.0078860332     4     2     9     9
 -0.0020973214     4     2    10     5
 0.0064313963     4     2    10    10
 -0.0006732751     4     3     1     7
 -0.0027768460     4     3     1     9
 0.0056063150     4     3     2     7
 0.0195475014     4     3     2     9
 -0.0106194920     4     3     3     1