&FCI NORB=  8,NELEC= 10,MS2=0,
 ORBSYM=1,1,1,1,1,1,1,1
 ISYM=1,
&END
 0.9850906458     1     1     2     2
 -0.0665596625     1     1     2     4
 0.0966171585     1     1     2     6
 -0.0487164026     1     1     2     8
 0.8722295193     1     1     3     3
 -0.1036047107     1     1     3     7
 -0.0665596625     1     1     4     2
 0.9486645140     1     1     4     4
 0.0497269953     1     1     4     6
 0.1100785780     1     1     4     8
 0.9892671093     1     1     5     5
 0.0966171585     1     1     6     2
 0.0497269953     1     1     6     4
 0.2799789439     1     1     6     6
 -0.0147009809     1     1     6     8
 -0.1036047107     1     1     7     3
 0.2412363104     1     1     7     7
 -0.0487164026     1     1     8     2
 0.1100785780     1     1     8     4
 -0.0147009809     1     1     8     6
 0.3092563452     1     1     8     8
 -0.9850906458     1     2     2     1
 0.0071101604     1     2     2     4
 0.0008566168     1     2     2     6
 0.0021715092     1     2     2     8
 0.0313611864     1     2     3     3
 -0.0081060112     1     2     3     7
 0.0665596625     1     2     4     1
 0.0360218224     1     2     4     4
 0.0051393764     1     2     4     6
 0.0073958898     1     2     4     8
 0.0404816208     1     2     5     5
 -0.0966171585     1     2     6     1
 0.0047137904     1     2     6     4
 0.0010177800     1     2     6     6
 0.0011240569     1     2     6     8
 -0.0057386737     1     2     7     3
 0.0021068486     1     2     7     7
 0.0487164026     1     2     8     1
 0.0051496106     1     2     8     4
 0.0007508240     1     2     8     6
 0.0020798191     1     2     8     8
 -0.0016533356     1     3     2     7
 -0.8722295193     1     3     3     1
 -0.0313611864     1     3     3     2
 0.0106279208     1     3     3     4
 -0.0035350033     1     3     3     6
 0.0036529169     1     3     3     8
 -0.0006594327     1     3     4     7
 0.0015041100     1     3     6     7
 0.1036047107     1     3     7     1
 0.0057386737     1     3     7     2
 -0.0019769287     1     3     7     4
 0.0026179297     1     3     7     6
 -0.0013868132     1     3     7     8
 -0.0007571381     1     3     8     7
 0.0665596625     1     4     2     1
 -0.0071101604     1     4     2     2
 -0.0001201011     1     4     2     6
 0.0015724377     1     4     2     8
 -0.0106279208     1     4     3     3
 0.0014763680     1     4     3     7
 -0.9486645140     1     4     4     1
 -0.0360218224     1     4     4     2
 -0.0067064796     1     4     4     6
 0.0024556642     1     4     4     8
 -0.0135465611     1     4     5     5
 -0.0497269953     1     4     6     1
 -0.0047137904     1     4     6     2
 -0.0025707291     1     4     6     6
 -0.0007314574     1     4     6     8
 0.0019769287     1     4     7     3
 -0.0014425483     1     4     7     7
 -0.1100785780     1     4     8     1
 -0.0051496106     1     4     8     2
 -0.0024795243     1     4     8     6
 0.0017900677     1     4     8     8
 -0.9892671093     1     5     5     1
 -0.0404816208     1     5     5     2
 0.0135465611     1     5     5     4
 -0.0062389724     1     5     5     6
 0.0070851470     1     5     5     8
 -0.0966171585     1     6     2     1
 -0.0008566168     1     6     2     2
 0.0001201011     1     6     2     4
 0.0003939191     1     6     2     8
 0.0035350033     1     6     3     3
 -0.0010893874     1     6     3     7
 -0.0497269953     1     6     4     1
 -0.0051393764     1     6     4     2
 0.0067064796     1     6     4     4
 0.0017110272     1     6     4     8
 0.0062389724     1     6     5     5
 -0.2799789439     1     6     6     1
 -0.0010177800     1     6     6     2
 0.0025707291     1     6     6     4
 0.0004735988     1     6     6     8
 -0.0026179297     1     6     7     3
 0.0006527567     1     6     7     7
 0.0147009809     1     6     8     1
 -0.0007508240     1     6     8     2
 0.0024795243     1     6     8     4
 0.0009669668     1     6     8     8
 0.0016533356     1     7     2     3
 0.1036047107     1     7     3     1
 0.0081060112     1     7     3     2
 -0.0014763680     1     7     3     4
 0.0010893874     1     7     3     6
 -0.0006589994     1     7     3     8
 0.0006594327     1     7     4     3
 -0.0015041100     1     7     6     3
 -0.2412363104     1     7     7     1
 -0.0021068486     1     7     7     2
 0.0014425483     1     7     7     4
 -0.0006527567     1     7     7     6
 0.0005971829     1     7     7     8
 0.0007571381     1     7     8     3
 0.0487164026     1     8     2     1
 -0.0021715092     1     8     2     2
 -0.0015724377     1     8     2     4
 -0.0003939191     1     8     2     6
 -0.0036529169     1     8     3     3
 0.0006589994     1     8     3     7
 -0.1100785780     1     8     4     1
 -0.0073958898     1     8     4     2
 -0.0024556642     1     8     4     4
 -0.0017110272     1     8     4     6
 -0.0070851470     1     8     5     5
 0.0147009809     1     8     6     1
 -0.0011240569     1     8     6     2
 0.0007314574     1     8     6     4
 -0.0004735988     1     8     6     6
 0.0013868132     1     8     7     3
 -0.0005971829     1     8     7     7
 -0.3092563452     1     8     8     1
 -0.0020798191     1     8     8     2
 -0.0017900677     1     8     8     4
 -0.0009669668     1     8     8     6
 -0.9850906458     2     1     1     2
 0.0665596625     2     1     1     4
 -0.0966171585     2     1     1     6
 0.0487164026     2     1     1     8
 0.0313611864     2     1     3     3
 -0.0057386737     2     1     3     7
 0.0071101604     2     1     4     2
 0.0360218224     2     1     4     4
 0.0047137904     2     1     4     6
 0.0051496106     2     1     4     8
 0.0404816208     2     1     5     5
 0.0008566168     2     1     6     2
 0.0051393764     2     1     6     4
 0.0010177800     2     1     6     6
 0.0007508240     2     1     6     8
 -0.0081060112     2     1     7     3
 0.0021068486     2     1     7     7
 0.0021715092     2     1     8     2
 0.0073958898     2     1     8     4
 0.0011240569     2     1     8     6
 0.0020798191     2     1     8     8
 0.9850906458     2     2     1     1
 -0.0071101604     2     2     1     4
 -0.0008566168     2     2     1     6
 -0.0021715092     2     2     1     8
 0.5292450131     2     2     3     3
 -0.0439427055     2     2     3     7
 -0.0071101604     2     2     4     1
 0.5504156912     2     2     4     4
 0.0211050047     2     2     4     6
 0.0474698330     2     2     4     8
 0.5748890757     2     2     5     5
 -0.0008566168     2     2     6     1
 0.0211050047     2     2     6     4
 0.2558657925     2     2     6     6
 -0.0072003484     2     2     6     8
 -0.0439427055     2     2     7     3
 0.2243472258     2     2     7     7
 -0.0021715092     2     2     8     1
 0.0474698330     2     2     8     4
 -0.0072003484     2     2     8     6
 0.2741597498     2     2     8     8
 0.0016533356     2     3     1     7
 -0.0313611864     2     3     3     1
 -0.5292450131     2     3     3     2
 0.0016494130     2     3     3     4
 -0.0449809306     2     3     3     6
 0.0228133914     2     3     3     8
 0.0054661933     2     3     4     7
 -0.0246994618     2     3     6     7
 0.0081060112     2     3     7     1
 0.0439427055     2     3     7     2
 0.0013626305     2     3     7     4
 -0.0180981481     2     3     7     6
 0.0032766984     2     3     7     8
 0.0070733545     2     3     8     7
 -0.0665596625     2     4     1     1
 0.0071101604     2     4     1     2
 0.0001201011     2     4     1     6
 -0.0015724377     2     4     1     8
 -0.0016494130     2     4     3     3
 0.0044063397     2     4     3     7
 -0.0360218224     2     4     4     1
 -0.5504156912     2     4     4     2
 -0.0447248618     2     4     4     6
 0.0158868660     2     4     4     8
 -0.0037183863     2     4     5     5
 -0.0051393764     2     4     6     1
 -0.0211050047     2     4     6     2
 0.0101079500     2     4     6     6
 0.0156644415     2     4     6     8
 -0.0013626305     2     4     7     3
 0.0091430551     2     4     7     7
 -0.0073958898     2     4     8     1
 -0.0474698330     2     4     8     2
 0.0074260462     2     4     8     6
 -0.0148342891     2     4     8     8
 -0.0404816208     2     5     5     1
 -0.5748890757     2     5     5     2
 0.0037183863     2     5     5     4
 -0.0451733386     2     5     5     6
 0.0113174845     2     5     5     8
 0.0966171585     2     6     1     1
 0.0008566168     2     6     1     2
 -0.0001201011     2     6     1     4
 -0.0003939191     2     6     1     8
 0.0449809306     2     6     3     3
 -0.0065870865     2     6     3     7
 -0.0047137904     2     6     4     1
 -0.0211050047     2     6     4     2
 0.0447248618     2     6     4     4
 0.0080679727     2     6     4     8
 0.0451733386     2     6     5     5
 -0.0010177800     2     6     6     1
 -0.2558657925     2     6     6     2
 -0.0101079500     2     6     6     4
 0.0010078194     2     6     6     8
 0.0180981481     2     6     7     3
 0.0031422819     2     6     7     7
 -0.0011240569     2     6     8     1
 0.0072003484     2     6     8     2
 -0.0074260462     2     6     8     4
 0.0063772134     2     6     8     8
 -0.0016533356     2     7     1     3
 0.0057386737     2     7     3     1
 0.0439427055     2     7     3     2
 -0.0044063397     2     7     3     4
 0.0065870865     2     7     3     6
 -0.0035575303     2     7     3     8
 -0.0054661933     2     7     4     3
 0.0246994618     2     7     6     3
 -0.0021068486     2     7     7     1
 -0.2243472258     2     7     7     2
 -0.0091430551     2     7     7     4
 -0.0031422819     2     7     7     6
 -0.0000721927     2     7     7     8
 -0.0070733545     2     7     8     3
 -0.0487164026     2     8     1     1
 0.0021715092     2     8     1     2
 0.0015724377     2     8     1     4
 0.0003939191     2     8     1     6
 -0.0228133914     2     8     3     3
 0.0035575303     2     8     3     7
 -0.0051496106     2     8     4     1
 -0.0474698330     2     8     4     2
 -0.0158868660     2     8     4     4
 -0.0080679727     2     8     4     6
 -0.0113174845     2     8     5     5
 -0.0007508240     2     8     6     1
 0.0072003484     2     8     6     2
 -0.0156644415     2     8     6     4
 -0.0010078194     2     8     6     6
 -0.0032766984     2     8     7     3
 0.0000721927     2     8     7     7
 -0.0020798191     2     8     8     1
 -0.2741597498     2     8     8     2
 0.0148342891     2     8     8     4
 -0.0063772134     2     8     8     6
 -0.8722295193     3     1     1     3
 0.1036047107     3     1     1     7
 -0.0313611864     3     1     2     3
 0.0057386737     3     1     2     7
 0.0106279208     3     1     4     3
 -0.0019769287     3     1     4     7
 -0.0035350033     3     1     6     3
 0.0026179297     3     1     6     7
 -0.0016533356     3     1     7     2
 -0.0006594327     3     1     7     4
 0.0015041100     3     1     7     6
 -0.0007571381     3     1     7     8
 0.0036529169     3     1     8     3
 -0.0013868132     3     1     8     7
 -0.0313611864     3     2     1     3
 0.0081060112     3     2     1     7
 -0.5292450131     3     2     2     3
 0.0439427055     3     2     2     7
 0.0016494130     3     2     4     3
 0.0013626305     3     2     4     7
 -0.0449809306     3     2     6     3
 -0.0180981481     3     2     6     7
 0.0016533356     3     2     7     1
 0.0054661933     3     2     7     4
 -0.0246994618     3     2     7     6
 0.0070733545     3     2     7     8
 0.0228133914     3     2     8     3
 0.0032766984     3     2     8     7
 0.8722295193     3     3     1     1
 0.0313611864     3     3     1     2
 -0.0106279208     3     3     1     4
 0.0035350033     3     3     1     6
 -0.0036529169     3     3     1     8
 0.0313611864     3     3     2     1
 0.5292450131     3     3     2     2
 -0.0016494130     3     3     2     4
 0.0449809306     3     3     2     6
 -0.0228133914     3     3     2     8
 -0.0106279208     3     3     4     1
 -0.0016494130     3     3     4     2
 0.5628278083     3     3     4     4
 0.0238871467     3     3     4     6
 0.0485239455     3     3     4     8
 0.5836133911     3     3     5     5
 0.0035350033     3     3     6     1
 0.0449809306     3     3     6     2
 0.0238871467     3     3     6     4
 0.2580649742     3     3     6     6
 -0.0082253794     3     3     6     8
 0.2196275459     3     3     7     7
 -0.0036529169     3     3     8     1
 -0.0228133914     3     3     8     2
 0.0485239455     3     3     8     4
 -0.0082253794     3     3     8     6
 0.2684709011     3     3     8     8
 0.0106279208     3     4     1     3
 -0.0014763680     3     4     1     7
 0.0016494130     3     4     2     3
 -0.0044063397     3     4     2     7
 -0.5628278083     3     4     4     3
 0.0528955019     3     4     4     7
 -0.0238871467     3     4     6     3
 -0.0020375551     3     4     6     7
 0.0006594327     3     4     7     1
 -0.0054661933     3     4     7     2
 -0.0061837780     3     4     7     6
 -0.0018280436     3     4     7     8
 -0.0485239455     3     4     8     3
 0.0075940645     3     4     8     7
 -0.5836133911     3     5     5     3
 0.0550831750     3     5     5     7
 -0.0035350033     3     6     1     3
 0.0010893874     3     6     1     7
 -0.0449809306     3     6     2     3
 0.0065870865     3     6     2     7
 -0.0238871467     3     6     4     3
 0.0042607840     3     6     4     7
 -0.2580649742     3     6     6     3
 0.0144034418     3     6     6     7
 -0.0015041100     3     6     7     1
 0.0246994618     3     6     7     2
 0.0061837780     3     6     7     4
 0.0059308201     3     6     7     8
 0.0082253794     3     6     8     3
 -0.0037582108     3     6     8     7
 -0.1036047107     3     7     1     1
 -0.0081060112     3     7     1     2
 0.0014763680     3     7     1     4
 -0.0010893874     3     7     1     6
 0.0006589994     3     7     1     8
 -0.0057386737     3     7     2     1
 -0.0439427055     3     7     2     2
 0.0044063397     3     7     2     4
 -0.0065870865     3     7     2     6
 0.0035575303     3     7     2     8
 0.0019769287     3     7     4     1
 -0.0013626305     3     7     4     2
 -0.0528955019     3     7     4     4
 -0.0042607840     3     7     4     6
 -0.0093720721     3     7     4     8
 -0.0550831750     3     7     5     5
 -0.0026179297     3     7     6     1
 0.0180981481     3     7     6     2
 0.0020375551     3     7     6     4
 -0.0144034418     3     7     6     6
 0.0096750542     3     7     6     8
 -0.2196275459     3     7     7     3
 0.0013868132     3     7     8     1
 -0.0032766984     3     7     8     2
 -0.0075940645     3     7     8     4
 0.0037582108     3     7     8     6
 -0.0133746279     3     7     8     8
 0.0036529169     3     8     1     3
 -0.0006589994     3     8     1     7
 0.0228133914     3     8     2     3
 -0.0035575303     3     8     2     7
 -0.0485239455     3     8     4     3
 0.0093720721     3     8     4     7
 0.0082253794     3     8     6     3
 -0.0096750542     3     8     6     7
 0.0007571381     3     8     7     1
 -0.0070733545     3     8     7     2
 0.0018280436     3     8     7     4
 -0.0059308201     3     8     7     6
 -0.2684709011     3     8     8     3
 0.0133746279     3     8     8     7
 0.0665596625     4     1     1     2
 -0.9486645140     4     1     1     4
 -0.0497269953     4     1     1     6
 -0.1100785780     4     1     1     8
 -0.0071101604     4     1     2     2
 -0.0360218224     4     1     2     4
 -0.0047137904     4     1     2     6
 -0.0051496106     4     1     2     8
 -0.0106279208     4     1     3     3
 0.0019769287     4     1     3     7
 -0.0135465611     4     1     5     5
 -0.0001201011     4     1     6     2
 -0.0067064796     4     1     6     4
 -0.0025707291     4     1     6     6
 -0.0024795243     4     1     6     8
 0.0014763680     4     1     7     3
 -0.0014425483     4     1     7     7
 0.0015724377     4     1     8     2
 0.0024556642     4     1     8     4
 -0.0007314574     4     1     8     6
 0.0017900677     4     1     8     8
 -0.0665596625     4     2     1     1
 -0.0360218224     4     2     1     4
 -0.0051393764     4     2     1     6
 -0.0073958898     4     2     1     8
 0.0071101604     4     2     2     1
 -0.5504156912     4     2     2     4
 -0.0211050047     4     2     2     6
 -0.0474698330     4     2     2     8
 -0.0016494130     4     2     3     3
 -0.0013626305     4     2     3     7
 -0.0037183863     4     2     5     5
 0.0001201011     4     2     6     1
 -0.0447248618     4     2     6     4
 0.0101079500     4     2     6     6
 0.0074260462     4     2     6     8
 0.0044063397     4     2     7     3
 0.0091430551     4     2     7     7
 -0.0015724377     4     2     8     1
 0.0158868660     4     2     8     4
 0.0156644415     4     2     8     6
 -0.0148342891     4     2     8     8
 0.0006594327     4     3     1     7
 -0.0054661933     4     3     2     7
 0.0106279208     4     3     3     1
 0.0016494130     4     3     3     2
 -0.5628278083     4     3     3     4
 -0.0238871467     4     3     3     6
 -0.0485239455     4     3     3     8
 -0.0061837780     4     3     6     7
 -0.0014763680     4     3     7     1
 -0.0044063397     4     3     7     2
 0.0528955019     4     3     7     4
 -0.0020375551     4     3     7     6
 0.0075940645     4     3     7     8
 -0.0018280436     4     3     8     7
 0.9486645140     4     4     1     1
 0.0360218224     4     4     1     2
 0.0067064796     4     4     1     6
 -0.0024556642     4     4     1     8
 0.0360218224     4     4     2     1
 0.5504156912     4     4     2     2
 0.0447248618     4     4     2     6
 -0.0158868660     4     4     2     8
 0.5628278083     4     4     3     3
 -0.0528955019     4     4     3     7
 0.6013686280     4     4     5     5
 0.0067064796     4     4     6     1
 0.0447248618     4     4     6     2
 0.2471625231     4     4     6     6
 -0.0192467301     4     4     6     8
 -0.0528955019     4     4     7     3
 0.2174821416     4     4     7     7
 -0.0024556642     4     4     8     1
 -0.0158868660     4     4     8     2
 -0.0192467301     4     4     8     6
 0.2767586377     4     4     8     8
 0.0135465611     4     5     5     1
 0.0037183863     4     5     5     2
 -0.6013686280     4     5     5     4
 -0.0277437034     4     5     5     6
 -0.0541439315     4     5     5     8
 0.0497269953     4     6     1     1
 0.0051393764     4     6     1     2
 -0.0067064796     4     6     1     4
 -0.0017110272     4     6     1     8
 0.0047137904     4     6     2     1
 0.0211050047     4     6     2     2
 -0.0447248618     4     6     2     4
 -0.0080679727     4     6     2     8
 0.0238871467     4     6     3     3
 -0.0042607840     4     6     3     7
 0.0277437034     4     6     5     5
 0.0025707291     4     6     6     1
 -0.0101079500     4     6     6     2
 -0.2471625231     4     6     6     4
 -0.0145395090     4     6     6     8
 0.0020375551     4     6     7     3
 0.0023771321     4     6     7     7
 0.0007314574     4     6     8     1
 -0.0156644415     4     6     8     2
 0.0192467301     4     6     8     4
 0.0082906380     4     6     8     8
 -0.0006594327     4     7     1     3
 0.0054661933     4     7     2     3
 -0.0019769287     4     7     3     1
 0.0013626305     4     7     3     2
 0.0528955019     4     7     3     4
 0.0042607840     4     7     3     6
 0.0093720721     4     7     3     8
 0.0061837780     4     7     6     3
 0.0014425483     4     7     7     1
 -0.0091430551     4     7     7     2
 -0.2174821416     4     7     7     4
 -0.0023771321     4     7     7     6
 -0.0072107900     4     7     7     8
 0.0018280436     4     7     8     3
 0.1100785780     4     8     1     1
 0.0073958898     4     8     1     2
 0.0024556642     4     8     1     4
 0.0017110272     4     8     1     6
 0.0051496106     4     8     2     1
 0.0474698330     4     8     2     2
 0.0158868660     4     8     2     4
 0.0080679727     4     8     2     6
 0.0485239455     4     8     3     3
 -0.0093720721     4     8     3     7
 0.0541439315     4     8     5     5
 0.0024795243     4     8     6     1
 -0.0074260462     4     8     6     2
 0.0192467301     4     8     6     4
 0.0145395090     4     8     6     6
 -0.0075940645     4     8     7     3
 0.0072107900     4     8     7     7
 -0.0017900677     4     8     8     1
 0.0148342891     4     8     8     2
 -0.2767586377     4     8     8     4
 -0.0082906380     4     8     8     6
 -0.9892671093     5     1     1     5
 -0.0404816208     5     1     2     5
 0.0135465611     5     1     4     5
 -0.0062389724     5     1     6     5
 0.0070851470     5     1     8     5
 -0.0404816208     5     2     1     5
 -0.5748890757     5     2     2     5
 0.0037183863     5     2     4     5
 -0.0451733386     5     2     6     5
 0.0113174845     5     2     8     5
 -0.5836133911     5     3     3     5
 0.0550831750     5     3     7     5
 0.0135465611     5     4     1     5
 0.0037183863     5     4     2     5
 -0.6013686280     5     4     4     5
 -0.0277437034     5     4     6     5
 -0.0541439315     5     4     8     5
 0.9892671093     5     5     1     1
 0.0404816208     5     5     1     2
 -0.0135465611     5     5     1     4
 0.0062389724     5     5     1     6
 -0.0070851470     5     5     1     8
 0.0404816208     5     5     2     1
 0.5748890757     5     5     2     2
 -0.0037183863     5     5     2     4
 0.0451733386     5     5     2     6
 -0.0113174845     5     5     2     8
 0.5836133911     5     5     3     3
 -0.0550831750     5     5     3     7
 -0.0135465611     5     5     4     1
 -0.0037183863     5     5     4     2
 0.6013686280     5     5     4     4
 0.0277437034     5     5     4     6
 0.0541439315     5     5     4     8
 0.0062389724     5     5     6     1
 0.0451733386     5     5     6     2
 0.0277437034     5     5     6     4
 0.2531754418     5     5     6     6
 -0.0110527334     5     5     6     8
 -0.0550831750     5     5     7     3
 0.2196844578     5     5     7     7
 -0.0070851470     5     5     8     1
 -0.0113174845     5     5     8     2
 0.0541439315     5     5     8     4
 -0.0110527334     5     5     8     6
 0.2762887861     5     5     8     8
 -0.0062389724     5     6     1     5
 -0.0451733386     5     6     2     5
 -0.0277437034     5     6     4     5
 -0.2531754418     5     6     6     5
 0.0110527334     5     6     8     5
 0.0550831750     5     7     3     5
 -0.2196844578     5     7     7     5
 0.0070851470     5     8     1     5
 0.0113174845     5     8     2     5
 -0.0541439315     5     8     4     5
 0.0110527334     5     8     6     5
 -0.2762887861     5     8     8     5
 -0.0966171585     6     1     1     2
 -0.0497269953     6     1     1     4
 -0.2799789439     6     1     1     6
 0.0147009809     6     1     1     8
 -0.0008566168     6     1     2     2
 -0.0051393764     6     1     2     4
 -0.0010177800     6     1     2     6
 -0.0007508240     6     1     2     8
 0.0035350033     6     1     3     3
 -0.0026179297     6     1     3     7
 0.0001201011     6     1     4     2
 0.0067064796     6     1     4     4
 0.0025707291     6     1     4     6
 0.0024795243     6     1     4     8
 0.0062389724     6     1     5     5
 -0.0010893874     6     1     7     3
 0.0006527567     6     1     7     7
 0.0003939191     6     1     8     2
 0.0017110272     6     1     8     4
 0.0004735988     6     1     8     6
 0.0009669668     6     1     8     8
 0.0966171585     6     2     1     1
 -0.0047137904     6     2     1     4
 -0.0010177800     6     2     1     6
 -0.0011240569     6     2     1     8
 0.0008566168     6     2     2     1
 -0.0211050047     6     2     2     4
 -0.2558657925     6     2     2     6
 0.0072003484     6     2     2     8
 0.0449809306     6     2     3     3
 0.0180981481     6     2     3     7
 -0.0001201011     6     2     4     1
 0.0447248618     6     2     4     4
 -0.0101079500     6     2     4     6
 -0.0074260462     6     2     4     8
 0.0451733386     6     2     5     5
 -0.0065870865     6     2     7     3
 0.0031422819     6     2     7     7
 -0.0003939191     6     2     8     1
 0.0080679727     6     2     8     4
 0.0010078194     6     2     8     6
 0.0063772134     6     2     8     8
 -0.0015041100     6     3     1     7
 0.0246994618     6     3     2     7
 -0.0035350033     6     3     3     1
 -0.0449809306     6     3     3     2
 -0.0238871467     6     3     3     4
 -0.2580649742     6     3     3     6
 0.0082253794     6     3     3     8
 0.0061837780     6     3     4     7
 0.0010893874     6     3     7     1
 0.0065870865     6     3     7     2
 0.0042607840     6     3     7     4
 0.0144034418     6     3     7     6
 -0.0037582108     6     3     7     8
 0.0059308201     6     3     8     7
 0.0497269953     6     4     1     1
 0.0047137904     6     4     1     2
 0.0025707291     6     4     1     6
 0.0007314574     6     4     1     8
 0.0051393764     6     4     2     1
 0.0211050047     6     4     2     2
 -0.0101079500     6     4     2     6
 -0.0156644415     6     4     2     8
 0.0238871467     6     4     3     3
 0.0020375551     6     4     3     7
 -0.0067064796     6     4     4     1
 -0.0447248618     6     4     4     2
 -0.2471625231     6     4     4     6
 0.0192467301     6     4     4     8
 0.0277437034     6     4     5     5
 -0.0042607840     6     4     7     3
 0.0023771321     6     4     7     7
 -0.0017110272     6     4     8     1
 -0.0080679727     6     4     8     2
 -0.0145395090     6     4     8     6
 0.0082906380     6     4     8     8
 -0.0062389724     6     5     5     1
 -0.0451733386     6     5     5     2
 -0.0277437034     6     5     5     4
 -0.2531754418     6     5     5     6
 0.0110527334     6     5     5     8
 0.2799789439     6     6     1     1
 0.0010177800     6     6     1     2
 -0.0025707291     6     6     1     4
 -0.0004735988     6     6     1     8
 0.0010177800     6     6     2     1
 0.2558657925     6     6     2     2
 0.0101079500     6     6     2     4
 -0.0010078194     6     6     2     8
 0.2580649742     6     6     3     3
 -0.0144034418     6     6     3     7
 -0.0025707291     6     6     4     1
 0.0101079500     6     6     4     2
 0.2471625231     6     6     4     4
 0.0145395090     6     6     4     8
 0.2531754418     6     6     5     5
 -0.0144034418     6     6     7     3
 0.1532117192     6     6     7     7
 -0.0004735988     6     6     8     1
 -0.0010078194     6     6     8     2
 0.0145395090     6     6     8     4
 0.1732797896     6     6     8     8
 0.0015041100     6     7     1     3
 -0.0246994618     6     7     2     3
 0.0026179297     6     7     3     1
 -0.0180981481     6     7     3     2
 -0.0020375551     6     7     3     4
 0.0144034418     6     7     3     6
 -0.0096750542     6     7     3     8
 -0.0061837780     6     7     4     3
 -0.0006527567     6     7     7     1
 -0.0031422819     6     7     7     2
 -0.0023771321     6     7     7     4
 -0.1532117192     6     7     7     6
 -0.0076158762     6     7     7     8
 -0.0059308201     6     7     8     3
 -0.0147009809     6     8     1     1
 0.0011240569     6     8     1     2
 -0.0007314574     6     8     1     4
 0.0004735988     6     8     1     6
 0.0007508240     6     8     2     1
 -0.0072003484     6     8     2     2
 0.0156644415     6     8     2     4
 0.0010078194     6     8     2     6
 -0.0082253794     6     8     3     3
 0.0096750542     6     8     3     7
 -0.0024795243     6     8     4     1
 0.0074260462     6     8     4     2
 -0.0192467301     6     8     4     4
 -0.0145395090     6     8     4     6
 -0.0110527334     6     8     5     5
 0.0037582108     6     8     7     3
 0.0076158762     6     8     7     7
 -0.0009669668     6     8     8     1
 -0.0063772134     6     8     8     2
 -0.0082906380     6     8     8     4
 -0.1732797896     6     8     8     6
 0.1036047107     7     1     1     3
 -0.2412363104     7     1     1     7
 0.0081060112     7     1     2     3
 -0.0021068486     7     1     2     7
 0.0016533356     7     1     3     2
 0.0006594327     7     1     3     4
 -0.0015041100     7     1     3     6
 0.0007571381     7     1     3     8
 -0.0014763680     7     1     4     3
 0.0014425483     7     1     4     7
 0.0010893874     7     1     6     3
 -0.0006527567     7     1     6     7
 -0.0006589994     7     1     8     3
 0.0005971829     7     1     8     7
 0.0057386737     7     2     1     3
 -0.0021068486     7     2     1     7
 0.0439427055     7     2     2     3
 -0.2243472258     7     2     2     7
 -0.0016533356     7     2     3     1
 -0.0054661933     7     2     3     4
 0.0246994618     7     2     3     6
 -0.0070733545     7     2     3     8
 -0.0044063397     7     2     4     3
 -0.0091430551     7     2     4     7
 0.0065870865     7     2     6     3
 -0.0031422819     7     2     6     7
 -0.0035575303     7     2     8     3
 -0.0000721927     7     2     8     7
 -0.1036047107     7     3     1     1
 -0.0057386737     7     3     1     2
 0.0019769287     7     3     1     4
 -0.0026179297     7     3     1     6
 0.0013868132     7     3     1     8
 -0.0081060112     7     3     2     1
 -0.0439427055     7     3     2     2
 -0.0013626305     7     3     2     4
 0.0180981481     7     3     2     6
 -0.0032766984     7     3     2     8
 -0.2196275459     7     3     3     7
 0.0014763680     7     3     4     1
 0.0044063397     7     3     4     2