&FCI NORB=  9,NELEC= 10,MS2=0,
 ORBSYM=1,1,1,1,1,1,1,1,1
 ISYM=1,
&END
 0.9845950090     1     1     2     2
 -0.0671852359     1     1     2     4
 -0.1150915651     1     1     2     6
 -0.0316995752     1     1     2     9
 0.8708384377     1     1     3     3
 -0.1309407989     1     1     3     7
 0.0678872449     1     1     3     8
 -0.0671852359     1     1     4     2
 0.9496362278     1     1     4     4
 -0.0570895922     1     1     4     6
 0.1488326585     1     1     4     9
 0.9922036410     1     1     5     5
 -0.1150915651     1     1     6     2
 -0.0570895922     1     1     6     4
 0.3158474254     1     1     6     6
 -0.0074233980     1     1     6     9
 -0.1309407989     1     1     7     3
 0.2841199228     1     1     7     7
 -0.0653839158     1     1     7     8
 0.0678872449     1     1     8     3
 -0.0653839158     1     1     8     7
 0.3898325321     1     1     8     8
 -0.0316995752     1     1     9     2
 0.1488326585     1     1     9     4
 -0.0074233980     1     1     9     6
 0.3829750926     1     1     9     9
 -0.9845950090     1     2     2     1
 0.0070893907     1     2     2     4
 -0.0010378665     1     2     2     6
 0.0030808423     1     2     2     9
 0.0312319081     1     2     3     3
 -0.0103678330     1     2     3     7
 0.0084746236     1     2     3     8
 0.0671852359     1     2     4     1
 0.0360155621     1     2     4     4
 -0.0059825924     1     2     4     6
 0.0112473056     1     2     4     9
 0.0406139806     1     2     5     5
 0.1150915651     1     2     6     1
 -0.0054836488     1     2     6     4
 0.0013931972     1     2     6     6
 -0.0020995251     1     2     6     9
 -0.0073483448     1     2     7     3
 0.0033807135     1     2     7     7
 -0.0026617470     1     2     7     8
 0.0054618726     1     2     8     3
 -0.0023380520     1     2     8     7
 0.0020126190     1     2     8     8
 0.0316995752     1     2     9     1
 0.0079766244     1     2     9     4
 -0.0014564157     1     2     9     6
 0.0039735364     1     2     9     9
 -0.0021506110     1     3     2     7
 0.0024359987     1     3     2     8
 -0.8708384377     1     3     3     1
 -0.0312319081     1     3     3     2
 0.0106174363     1     3     3     4
 0.0041148225     1     3     3     6
 0.0028275995     1     3     3     9
 -0.0009824880     1     3     4     7
 0.0039610036     1     3     4     8
 -0.0018481940     1     3     6     7
 -0.0004142893     1     3     6     8
 0.1309407989     1     3     7     1
 0.0073483448     1     3     7     2
 -0.0025295983     1     3     7     4
 -0.0035392084     1     3     7     6
 -0.0011789656     1     3     7     9
 -0.0678872449     1     3     8     1
 -0.0054618726     1     3     8     2
 0.0017070401     1     3     8     4
 0.0016957121     1     3     8     6
 -0.0010637226     1     3     8     9
 -0.0009012934     1     3     9     7
 -0.0000373381     1     3     9     8
 0.0671852359     1     4     2     1
 -0.0070893907     1     4     2     2
 0.0001119886     1     4     2     6
 0.0023417068     1     4     2     9
 -0.0106174363     1     4     3     3
 0.0017218076     1     4     3     7
 0.0021905261     1     4     3     8
 -0.9496362278     1     4     4     1
 -0.0360155621     1     4     4     2
 0.0079453024     1     4     4     6
 0.0008457829     1     4     4     9
 -0.0136240362     1     4     5     5
 0.0570895922     1     4     6     1
 0.0054836488     1     4     6     2
 -0.0032178861     1     4     6     6
 0.0014616923     1     4     6     9
 0.0025295983     1     4     7     3
 -0.0020756781     1     4     7     7
 0.0009432311     1     4     7     8
 -0.0017070401     1     4     8     3
 0.0021486747     1     4     8     7
 -0.0012882236     1     4     8     8
 -0.1488326585     1     4     9     1
 -0.0079766244     1     4     9     2
 0.0041206530     1     4     9     6
 0.0009267127     1     4     9     9
 -0.9922036410     1     5     5     1
 -0.0406139806     1     5     5     2
 0.0136240362     1     5     5     4
 0.0076535060     1     5     5     6
 0.0073639262     1     5     5     9
 0.1150915651     1     6     2     1
 0.0010378665     1     6     2     2
 -0.0001119886     1     6     2     4
 -0.0006552060     1     6     2     9
 -0.0041148225     1     6     3     3
 0.0016665326     1     6     3     7
 -0.0021359401     1     6     3     8
 0.0570895922     1     6     4     1
 0.0059825924     1     6     4     2
 -0.0079453024     1     6     4     4
 -0.0026287479     1     6     4     9
 -0.0076535060     1     6     5     5
 -0.3158474254     1     6     6     1
 -0.0013931972     1     6     6     2
 0.0032178861     1     6     6     4
 0.0008441094     1     6     6     9
 0.0035392084     1     6     7     3
 -0.0011571670     1     6     7     7
 0.0009983937     1     6     7     8
 -0.0016957121     1     6     8     3
 0.0003704078     1     6     8     7
 -0.0003379382     1     6     8     8
 0.0074233980     1     6     9     1
 0.0014564157     1     6     9     2
 -0.0041206530     1     6     9     4
 -0.0017555389     1     6     9     9
 0.0021506110     1     7     2     3
 -0.0002994329     1     7     2     8
 0.1309407989     1     7     3     1
 0.0103678330     1     7     3     2
 -0.0017218076     1     7     3     4
 -0.0016665326     1     7     3     6
 -0.0003137016     1     7     3     9
 0.0009824880     1     7     4     3
 -0.0011860546     1     7     4     8
 0.0018481940     1     7     6     3
 0.0006266134     1     7     6     8
 -0.2841199228     1     7     7     1
 -0.0033807135     1     7     7     2
 0.0020756781     1     7     7     4
 0.0011571670     1     7     7     6
 0.0007955888     1     7     7     9
 0.0653839158     1     7     8     1
 0.0023380520     1     7     8     2
 -0.0021486747     1     7     8     4
 -0.0003704078     1     7     8     6
 -0.0001334576     1     7     8     9
 0.0009012934     1     7     9     3
 0.0002517657     1     7     9     8
 -0.0024359987     1     8     2     3
 0.0002994329     1     8     2     7
 -0.0678872449     1     8     3     1
 -0.0084746236     1     8     3     2
 -0.0021905261     1     8     3     4
 0.0021359401     1     8     3     6
 -0.0009221634     1     8     3     9
 -0.0039610036     1     8     4     3
 0.0011860546     1     8     4     7
 0.0004142893     1     8     6     3
 -0.0006266134     1     8     6     7
 0.0653839158     1     8     7     1
 0.0026617470     1     8     7     2
 -0.0009432311     1     8     7     4
 -0.0009983937     1     8     7     6
 -0.0003845702     1     8     7     9
 -0.3898325321     1     8     8     1
 -0.0020126190     1     8     8     2
 0.0012882236     1     8     8     4
 0.0003379382     1     8     8     6
 -0.0000308736     1     8     8     9
 0.0000373381     1     8     9     3
 -0.0002517657     1     8     9     7
 0.0316995752     1     9     2     1
 -0.0030808423     1     9     2     2
 -0.0023417068     1     9     2     4
 0.0006552060     1     9     2     6
 -0.0028275995     1     9     3     3
 0.0003137016     1     9     3     7
 0.0009221634     1     9     3     8
 -0.1488326585     1     9     4     1
 -0.0112473056     1     9     4     2
 -0.0008457829     1     9     4     4
 0.0026287479     1     9     4     6
 -0.0073639262     1     9     5     5
 0.0074233980     1     9     6     1
 0.0020995251     1     9     6     2
 -0.0014616923     1     9     6     4
 -0.0008441094     1     9     6     6
 0.0011789656     1     9     7     3
 -0.0007955888     1     9     7     7
 0.0003845702     1     9     7     8
 0.0010637226     1     9     8     3
 0.0001334576     1     9     8     7
 0.0000308736     1     9     8     8
 -0.3829750926     1     9     9     1
 -0.0039735364     1     9     9     2
 -0.0009267127     1     9     9     4
 0.0017555389     1     9     9     6
 -0.9845950090     2     1     1     2
 0.0671852359     2     1     1     4
 0.1150915651     2     1     1     6
 0.0316995752     2     1     1     9
 0.0312319081     2     1     3     3
 -0.0073483448     2     1     3     7
 0.0054618726     2     1     3     8
 0.0070893907     2     1     4     2
 0.0360155621     2     1     4     4
 -0.0054836488     2     1     4     6
 0.0079766244     2     1     4     9
 0.0406139806     2     1     5     5
 -0.0010378665     2     1     6     2
 -0.0059825924     2     1     6     4
 0.0013931972     2     1     6     6
 -0.0014564157     2     1     6     9
 -0.0103678330     2     1     7     3
 0.0033807135     2     1     7     7
 -0.0023380520     2     1     7     8
 0.0084746236     2     1     8     3
 -0.0026617470     2     1     8     7
 0.0020126190     2     1     8     8
 0.0030808423     2     1     9     2
 0.0112473056     2     1     9     4
 -0.0020995251     2     1     9     6
 0.0039735364     2     1     9     9
 0.9845950090     2     2     1     1
 -0.0070893907     2     2     1     4
 0.0010378665     2     2     1     6
 -0.0030808423     2     2     1     9
 0.5286259470     2     2     3     3
 -0.0539309006     2     2     3     7
 0.0115810814     2     2     3     8
 -0.0070893907     2     2     4     1
 0.5507040702     2     2     4     4
 -0.0240789647     2     2     4     6
 0.0602443807     2     2     4     9
 0.5761252043     2     2     5     5
 0.0010378665     2     2     6     1
 -0.0240789647     2     2     6     4
 0.2810388353     2     2     6     6
 -0.0079180739     2     2     6     9
 -0.0539309006     2     2     7     3
 0.2557949900     2     2     7     7
 -0.0430113711     2     2     7     8
 0.0115810814     2     2     8     3
 -0.0430113711     2     2     8     7
 0.3580726334     2     2     8     8
 -0.0030808423     2     2     9     1
 0.0602443807     2     2     9     4
 -0.0079180739     2     2     9     6
 0.3322526225     2     2     9     9
 0.0021506110     2     3     1     7
 -0.0024359987     2     3     1     8
 -0.0312319081     2     3     3     1
 -0.5286259470     2     3     3     2
 0.0018569096     2     3     3     4
 0.0534931740     2     3     3     6
 0.0197882568     2     3     3     9
 0.0080282710     2     3     4     7
 -0.0270891120     2     3     4     8
 0.0298429745     2     3     6     7
 0.0002818391     2     3     6     8
 0.0103678330     2     3     7     1
 0.0539309006     2     3     7     2
 0.0014999131     2     3     7     4
 0.0201666276     2     3     7     6
 0.0016460770     2     3     7     9
 -0.0084746236     2     3     8     1
 -0.0115810814     2     3     8     2
 -0.0046219395     2     3     8     4
 0.0013999253     2     3     8     6
 0.0148948998     2     3     8     9
 0.0056154909     2     3     9     7
 0.0117148808     2     3     9     8
 -0.0671852359     2     4     1     1
 0.0070893907     2     4     1     2
 -0.0001119886     2     4     1     6
 -0.0023417068     2     4     1     9
 -0.0018569096     2     4     3     3
 0.0067305215     2     4     3     7
 -0.0225371544     2     4     3     8
 -0.0360155621     2     4     4     1
 -0.5507040702     2     4     4     2
 0.0528985301     2     4     4     6
 0.0055082203     2     4     4     9
 -0.0040191050     2     4     5     5
 0.0059825924     2     4     6     1
 0.0240789647     2     4     6     2
 0.0100637106     2     4     6     6
 -0.0195764354     2     4     6     9
 -0.0014999131     2     4     7     3
 0.0112314837     2     4     7     7
 -0.0054947244     2     4     7     8
 0.0046219395     2     4     8     3
 -0.0095201772     2     4     8     7
 -0.0008135714     2     4     8     8
 -0.0112473056     2     4     9     1
 -0.0602443807     2     4     9     2
 -0.0083712652     2     4     9     6
 -0.0103888349     2     4     9     9
 -0.0406139806     2     5     5     1
 -0.5761252043     2     5     5     2
 0.0040191050     2     5     5     4
 0.0523401476     2     5     5     6
 -0.0010874764     2     5     5     9
 -0.1150915651     2     6     1     1
 -0.0010378665     2     6     1     2
 0.0001119886     2     6     1     4
 0.0006552060     2     6     1     9
 -0.0534931740     2     6     3     3
 0.0094781360     2     6     3     7
 -0.0005895890     2     6     3     8
 0.0054836488     2     6     4     1
 0.0240789647     2     6     4     2
 -0.0528985301     2     6     4     4
 -0.0107815545     2     6     4     9
 -0.0523401476     2     6     5     5
 -0.0013931972     2     6     6     1
 -0.2810388353     2     6     6     2
 -0.0100637106     2     6     6     4
 0.0016970481     2     6     6     9
 -0.0201666276     2     6     7     3
 -0.0053728537     2     6     7     7
 0.0075754757     2     6     7     8
 -0.0013999253     2     6     8     3
 0.0043204129     2     6     8     7
 -0.0174828336     2     6     8     8
 0.0020995251     2     6     9     1
 0.0079180739     2     6     9     2
 0.0083712652     2     6     9     4
 -0.0132737689     2     6     9     9
 -0.0021506110     2     7     1     3
 0.0002994329     2     7     1     8
 0.0073483448     2     7     3     1
 0.0539309006     2     7     3     2
 -0.0067305215     2     7     3     4
 -0.0094781360     2     7     3     6
 -0.0036156350     2     7     3     9
 -0.0080282710     2     7     4     3
 0.0036450640     2     7     4     8
 -0.0298429745     2     7     6     3
 0.0032693699     2     7     6     8
 -0.0033807135     2     7     7     1
 -0.2557949900     2     7     7     2
 -0.0112314837     2     7     7     4
 0.0053728537     2     7     7     6
 -0.0005959969     2     7     7     9
 0.0026617470     2     7     8     1
 0.0430113711     2     7     8     2
 0.0095201772     2     7     8     4
 -0.0043204129     2     7     8     6
 -0.0014866973     2     7     8     9
 -0.0056154909     2     7     9     3
 -0.0017852667     2     7     9     8
 0.0024359987     2     8     1     3
 -0.0002994329     2     8     1     7
 -0.0054618726     2     8     3     1
 -0.0115810814     2     8     3     2
 0.0225371544     2     8     3     4
 0.0005895890     2     8     3     6
 0.0024442288     2     8     3     9
 0.0270891120     2     8     4     3
 -0.0036450640     2     8     4     7
 -0.0002818391     2     8     6     3
 -0.0032693699     2     8     6     7
 0.0023380520     2     8     7     1
 0.0430113711     2     8     7     2
 0.0054947244     2     8     7     4
 -0.0075754757     2     8     7     6
 0.0003758748     2     8     7     9
 -0.0020126190     2     8     8     1
 -0.3580726334     2     8     8     2
 0.0008135714     2     8     8     4
 0.0174828336     2     8     8     6
 0.0016191452     2     8     8     9
 -0.0117148808     2     8     9     3
 0.0017852667     2     8     9     7
 -0.0316995752     2     9     1     1
 0.0030808423     2     9     1     2
 0.0023417068     2     9     1     4
 -0.0006552060     2     9     1     6
 -0.0197882568     2     9     3     3
 0.0036156350     2     9     3     7
 -0.0024442288     2     9     3     8
 -0.0079766244     2     9     4     1
 -0.0602443807     2     9     4     2
 -0.0055082203     2     9     4     4
 0.0107815545     2     9     4     6
 0.0010874764     2     9     5     5
 0.0014564157     2     9     6     1
 0.0079180739     2     9     6     2
 0.0195764354     2     9     6     4
 -0.0016970481     2     9     6     6
 -0.0016460770     2     9     7     3
 0.0005959969     2     9     7     7
 -0.0003758748     2     9     7     8
 -0.0148948998     2     9     8     3
 0.0014866973     2     9     8     7
 -0.0016191452     2     9     8     8
 -0.0039735364     2     9     9     1
 -0.3322526225     2     9     9     2
 0.0103888349     2     9     9     4
 0.0132737689     2     9     9     6
 -0.8708384377     3     1     1     3
 0.1309407989     3     1     1     7
 -0.0678872449     3     1     1     8
 -0.0312319081     3     1     2     3
 0.0073483448     3     1     2     7
 -0.0054618726     3     1     2     8
 0.0106174363     3     1     4     3
 -0.0025295983     3     1     4     7
 0.0017070401     3     1     4     8
 0.0041148225     3     1     6     3
 -0.0035392084     3     1     6     7
 0.0016957121     3     1     6     8
 -0.0021506110     3     1     7     2
 -0.0009824880     3     1     7     4
 -0.0018481940     3     1     7     6
 -0.0009012934     3     1     7     9
 0.0024359987     3     1     8     2
 0.0039610036     3     1     8     4
 -0.0004142893     3     1     8     6
 -0.0000373381     3     1     8     9
 0.0028275995     3     1     9     3
 -0.0011789656     3     1     9     7
 -0.0010637226     3     1     9     8
 -0.0312319081     3     2     1     3
 0.0103678330     3     2     1     7
 -0.0084746236     3     2     1     8
 -0.5286259470     3     2     2     3
 0.0539309006     3     2     2     7
 -0.0115810814     3     2     2     8
 0.0018569096     3     2     4     3
 0.0014999131     3     2     4     7
 -0.0046219395     3     2     4     8
 0.0534931740     3     2     6     3
 0.0201666276     3     2     6     7
 0.0013999253     3     2     6     8
 0.0021506110     3     2     7     1
 0.0080282710     3     2     7     4
 0.0298429745     3     2     7     6
 0.0056154909     3     2     7     9
 -0.0024359987     3     2     8     1
 -0.0270891120     3     2     8     4
 0.0002818391     3     2     8     6
 0.0117148808     3     2     8     9
 0.0197882568     3     2     9     3
 0.0016460770     3     2     9     7
 0.0148948998     3     2     9     8
 0.8708384377     3     3     1     1
 0.0312319081     3     3     1     2
 -0.0106174363     3     3     1     4
 -0.0041148225     3     3     1     6
 -0.0028275995     3     3     1     9
 0.0312319081     3     3     2     1
 0.5286259470     3     3     2     2
 -0.0018569096     3     3     2     4
 -0.0534931740     3     3     2     6
 -0.0197882568     3     3     2     9
 -0.0106174363     3     3     4     1
 -0.0018569096     3     3     4     2
 0.5628622620     3     3     4     4
 -0.0266226640     3     3     4     6
 0.0602911176     3     3     4     9
 0.5844376151     3     3     5     5
 -0.0041148225     3     3     6     1
 -0.0534931740     3     3     6     2
 -0.0266226640     3     3     6     4
 0.2839095326     3     3     6     6
 -0.0070111011     3     3     6     9
 0.2464503283     3     3     7     7
 -0.0340633526     3     3     7     8
 -0.0340633526     3     3     8     7
 0.3405841237     3     3     8     8
 -0.0028275995     3     3     9     1
 -0.0197882568     3     3     9     2
 0.0602911176     3     3     9     4
 -0.0070111011     3     3     9     6
 0.3210267582     3     3     9     9
 0.0106174363     3     4     1     3
 -0.0017218076     3     4     1     7
 -0.0021905261     3     4     1     8
 0.0018569096     3     4     2     3
 -0.0067305215     3     4     2     7
 0.0225371544     3     4     2     8
 -0.5628622620     3     4     4     3
 0.0654773225     3     4     4     7
 -0.0307712230     3     4     4     8
 0.0266226640     3     4     6     3
 0.0013483829     3     4     6     7
 0.0005844036     3     4     6     8
 0.0009824880     3     4     7     1
 -0.0080282710     3     4     7     2
 0.0070415043     3     4     7     6
 -0.0035114133     3     4     7     9
 -0.0039610036     3     4     8     1
 0.0270891120     3     4     8     2
 -0.0014637673     3     4     8     6
 0.0063386074     3     4     8     9
 -0.0602911176     3     4     9     3
 0.0126914856     3     4     9     7
 -0.0094682067     3     4     9     8
 -0.5844376151     3     5     5     3
 0.0683687680     3     5     5     7
 -0.0240785828     3     5     5     8
 0.0041148225     3     6     1     3
 -0.0016665326     3     6     1     7
 0.0021359401     3     6     1     8
 0.0534931740     3     6     2     3
 -0.0094781360     3     6     2     7
 0.0005895890     3     6     2     8
 0.0266226640     3     6     4     3
 -0.0055887867     3     6     4     7
 0.0015454781     3     6     4     8
 -0.2839095326     3     6     6     3
 0.0203273601     3     6     6     7
 0.0101973668     3     6     6     8
 0.0018481940     3     6     7     1
 -0.0298429745     3     6     7     2
 -0.0070415043     3     6     7     4
 -0.0089301946     3     6     7     9
 0.0004142893     3     6     8     1
 -0.0002818391     3     6     8     2
 0.0014637673     3     6     8     4
 0.0043148004     3     6     8     9
 0.0070111011     3     6     9     3
 0.0034564043     3     6     9     7
 -0.0066652826     3     6     9     8
 -0.1309407989     3     7     1     1
 -0.0103678330     3     7     1     2
 0.0017218076     3     7     1     4
 0.0016665326     3     7     1     6
 0.0003137016     3     7     1     9
 -0.0073483448     3     7     2     1
 -0.0539309006     3     7     2     2
 0.0067305215     3     7     2     4
 0.0094781360     3     7     2     6
 0.0036156350     3     7     2     9
 0.0025295983     3     7     4     1
 -0.0014999131     3     7     4     2
 -0.0654773225     3     7     4     4
 0.0055887867     3     7     4     6
 -0.0153646681     3     7     4     9
 -0.0683687680     3     7     5     5
 0.0035392084     3     7     6     1
 -0.0201666276     3     7     6     2
 -0.0013483829     3     7     6     4
 -0.0203273601     3     7     6     6
 -0.0123109010     3     7     6     9
 -0.2464503283     3     7     7     3
 0.0126281300     3     7     7     8
 0.0340633526     3     7     8     3
 -0.0237792671     3     7     8     8
 0.0011789656     3     7     9     1
 -0.0016460770     3     7     9     2
 -0.0126914856     3     7     9     4
 -0.0034564043     3     7     9     6
 -0.0210546552     3     7     9     9
 0.0678872449     3     8     1     1
 0.0084746236     3     8     1     2
 0.0021905261     3     8     1     4
 -0.0021359401     3     8     1     6
 0.0009221634     3     8     1     9
 0.0054618726     3     8     2     1
 0.0115810814     3     8     2     2
 -0.0225371544     3     8     2     4
 -0.0005895890     3     8     2     6
 -0.0024442288     3     8     2     9
 -0.0017070401     3     8     4     1
 0.0046219395     3     8     4     2
 0.0307712230     3     8     4     4
 -0.0015454781     3     8     4     6
 0.0143935750     3     8     4     9
 0.0240785828     3     8     5     5
 -0.0016957121     3     8     6     1
 -0.0013999253     3     8     6     2
 -0.0005844036     3     8     6     4
 -0.0101973668     3     8     6     6
 0.0108809610     3     8     6     9
 0.0340633526     3     8     7     3
 -0.0126281300     3     8     7     7
 -0.3405841237     3     8     8     3
 0.0237792671     3     8     8     7
 0.0010637226     3     8     9     1
 -0.0148948998     3     8     9     2
 0.0094682067     3     8     9     4
 0.0066652826     3     8     9     6
 0.0036433687     3     8     9     9
 0.0028275995     3     9     1     3
 -0.0003137016     3     9     1     7
 -0.0009221634     3     9     1     8
 0.0197882568     3     9     2     3
 -0.0036156350     3     9     2     7
 0.0024442288     3     9     2     8
 -0.0602911176     3     9     4     3
 0.0153646681     3     9     4     7
 -0.0143935750     3     9     4     8
 0.0070111011     3     9     6     3
 0.0123109010     3     9     6     7
 -0.0108809610     3     9     6     8
 0.0009012934     3     9     7     1
 -0.0056154909     3     9     7     2
 0.0035114133     3     9     7     4
 0.0089301946     3     9     7     6
 0.0000373381     3     9     8     1
 -0.0117148808     3     9     8     2
 -0.0063386074     3     9     8     4
 -0.0043148004     3     9     8     6
 -0.3210267582     3     9     9     3
 0.0210546552     3     9     9     7
 -0.0036433687     3     9     9     8
 0.0671852359     4     1     1     2
 -0.9496362278     4     1     1     4
 0.0570895922     4     1     1     6
 -0.1488326585     4     1     1     9
 -0.0070893907     4     1     2     2
 -0.0360155621     4     1     2     4
 0.0054836488     4     1     2     6
 -0.0079766244     4     1     2     9
 -0.0106174363     4     1     3     3
 0.0025295983     4     1     3     7
 -0.0017070401     4     1     3     8
 -0.0136240362     4     1     5     5
 0.0001119886     4     1     6     2
 0.0079453024     4     1     6     4
 -0.0032178861     4     1     6     6
 0.0041206530     4     1     6     9
 0.0017218076     4     1     7     3
 -0.0020756781     4     1     7     7
 0.0021486747     4     1     7     8
 0.0021905261     4     1     8     3
 0.0009432311     4     1     8     7
 -0.0012882236     4     1     8     8
 0.0023417068     4     1     9     2
 0.0008457829     4     1     9     4
 0.0014616923     4     1     9     6
 0.0009267127     4     1     9     9
 -0.0671852359     4     2     1     1
 -0.0360155621     4     2     1     4
 0.0059825924     4     2     1     6
 -0.0112473056     4     2     1     9
 0.0070893907     4     2     2     1
 -0.5507040702     4     2     2     4
 0.0240789647     4     2     2     6
 -0.0602443807     4     2     2     9
 -0.0018569096     4     2     3     3
 -0.0014999131     4     2     3     7
 0.0046219395     4     2     3     8
 -0.0040191050     4     2     5     5
 -0.0001119886     4     2     6     1
 0.0528985301     4     2     6     4
 0.0100637106     4     2     6     6
 -0.0083712652     4     2     6     9
 0.0067305215     4     2     7     3
 0.0112314837     4     2     7     7
 -0.0095201772     4     2     7     8
 -0.0225371544     4     2     8     3
 -0.0054947244     4     2     8     7
 -0.0008135714     4     2     8     8
 -0.0023417068     4     2     9     1
 0.0055082203     4     2     9     4
 -0.0195764354     4     2     9     6
 -0.0103888349     4     2     9     9
 0.0009824880     4     3     1     7
 -0.0039610036     4     3     1     8
 -0.0080282710     4     3     2     7
 0.0270891120     4     3     2     8
 0.0106174363     4     3     3     1
 0.0018569096     4     3     3     2
 -0.5628622620     4     3     3     4
 0.0266226640     4     3     3     6
 -0.0602911176     4     3     3     9
 0.0070415043     4     3     6     7
 -0.0014637673     4     3     6     8
 -0.0017218076     4     3     7     1
 -0.0067305215     4     3     7     2
 0.0654773225     4     3     7     4
 0.0013483829     4     3     7     6
 0.0126914856     4     3     7     9
 -0.0021905261     4     3     8     1
 0.0225371544     4     3     8     2
 -0.0307712230     4     3     8     4
 0.0005844036     4     3     8     6
 -0.0094682067     4     3     8     9
 -0.0035114133     4     3     9     7
 0.0063386074     4     3     9     8
 0.9496362278     4     4     1     1
 0.0360155621     4     4     1     2
 -0.0079453024     4     4     1     6
 -0.0008457829     4     4     1     9
 0.0360155621     4     4     2     1
 0.5507040702     4     4     2     2
 -0.0528985301     4     4     2     6
 -0.0055082203     4     4     2     9
 0.5628622620     4     4     3     3
 -0.0654773225     4     4     3     7
 0.0307712230     4     4     3     8
 0.6034903529     4     4     5     5
 -0.0079453024     4     4     6     1
 -0.0528985301     4     4     6     2
 0.2717820799     4     4     6     6
 0.0087270213     4     4     6     9
 -0.0654773225     4     4     7     3
 0.2468508762     4     4     7     7
 -0.0361611970     4     4     7     8
 0.0307712230     4     4     8     3
 -0.0361611970     4     4     8     7
 0.3397632059     4     4     8     8
 -0.0008457829     4     4     9     1
 -0.0055082203     4     4     9     2
 0.0087270213     4     4     9     6
 0.3238025138     4     4     9     9
 0.0136240362     4     5     5     1
 0.0040191050     4     5     5     2
 -0.6034903529     4     5     5     4
 0.0315806480     4     5     5     6
 -0.0694582398     4     5     5     9
 -0.0570895922     4     6     1     1
 -0.0059825924     4     6     1     2
 0.0079453024     4     6     1     4
 0.0026287479     4     6     1     9
 -0.0054836488     4     6     2     1
 -0.0240789647     4     6     2     2
 0.0528985301     4     6     2     4
 0.0107815545     4     6     2     9
 -0.0266226640     4     6     3     3
 0.0055887867     4     6     3     7
 -0.0015454781     4     6     3     8
 -0.0315806480     4     6     5     5
 0.0032178861     4     6     6     1
 -0.0100637106     4     6     6     2
 -0.2717820799     4     6     6     4
 -0.0170643916     4     6     6     9
 -0.0013483829     4     6     7     3
 -0.0047530125     4     6     7     7
 0.0179064191     4     6     7     8
 -0.0005844036     4     6     8     3
 -0.0008631013     4     6     8     7
 -0.0075855610     4     6     8     8
 -0.0014616923     4     6     9     1
 0.0195764354     4     6     9     2
 -0.0087270213     4     6     9     4
 -0.0099128201     4     6     9     9
 -0.0009824880     4     7     1     3
 0.0011860546     4     7     1     8
 0.0080282710     4     7     2     3
 -0.0036450640     4     7     2     8
 -0.0025295983     4     7     3     1
 0.0014999131     4     7     3     2
 0.0654773225     4     7     3     4
 -0.0055887867     4     7     3     6
 0.0153646681     4     7     3     9
 -0.0070415043     4     7     6     3
 0.0188526750     4     7     6     8
 0.0020756781     4     7     7     1
 -0.0112314837     4     7     7     2
 -0.2468508762     4     7     7     4
 0.0047530125     4     7     7     6
 -0.0102812543     4     7     7     9
 -0.0009432311     4     7     8     1
 0.0054947244     4     7     8     2
 0.0361611970     4     7     8     4
 0.0008631013     4     7     8     6
 0.0087868374     4     7     8     9
 0.0035114133     4     7     9     3
 0.0046307147     4     7     9     8
 0.0039610036     4     8     1     3
 -0.0011860546     4     8     1     7
 -0.0270891120     4     8     2     3
 0.0036450640     4     8     2     7
 0.0017070401     4     8     3     1
 -0.0046219395     4     8     3     2