&FCI NORB=  8,NELEC=  6,MS2=0,
 ORBSYM=1,1,1,1,1,1,1,1
 ISYM=1,
&END
 0.1365836142     1     1     2     2
 0.0149901098     1     1     2     4
 0.0102564985     1     1     2     6
 -0.0010292586     1     1     2     8
 0.1751050876     1     1     3     3
 0.0315437815     1     1     3     5
 0.0018053458     1     1     3     7
 0.0149901098     1     1     4     2
 0.1932758730     1     1     4     4
 -0.0392887919     1     1     4     6
 -0.0027237623     1     1     4     8
 0.0315437815     1     1     5     3
 0.1890666323     1     1     5     5
 0.0109005084     1     1     5     7
 0.0102564985     1     1     6     2
 -0.0392887919     1     1     6     4
 0.2161723133     1     1     6     6
 0.0316413749     1     1     6     8
 0.0018053458     1     1     7     3
 0.0109005084     1     1     7     5
 0.1876532654     1     1     7     7
 -0.0010292586     1     1     8     2
 -0.0027237623     1     1     8     4
 0.0316413749     1     1     8     6
 0.1652054086     1     1     8     8
 -0.1365836142     1     2     2     1
 -0.0489607463     1     2     2     3
 -0.0010945096     1     2     2     5
 -0.0037485559     1     2     2     7
 0.0447642569     1     2     3     4
 -0.0218367015     1     2     3     6
 -0.0016080576     1     2     3     8
 -0.0149901098     1     2     4     1
 0.0132992178     1     2     4     3
 -0.0514877293     1     2     4     5
 -0.0070468555     1     2     4     7
 -0.0370597452     1     2     5     4
 -0.0565790695     1     2     5     6
 -0.0173419775     1     2     5     8
 -0.0102564985     1     2     6     1
 -0.0163404934     1     2     6     3
 -0.0459623220     1     2     6     5
 0.0062244052     1     2     6     7
 -0.0051053907     1     2     7     4
 0.0057848634     1     2     7     6
 -0.0507090136     1     2     7     8
 0.0010292586     1     2     8     1
 0.0015029744     1     2     8     3
 -0.0149585739     1     2     8     5
 -0.0500087758     1     2     8     7
 0.0489607463     1     3     2     2
 0.0315381092     1     3     2     4
 -0.0055565128     1     3     2     6
 -0.0031106052     1     3     2     8
 -0.1751050876     1     3     3     1
 0.0314104592     1     3     3     5
 -0.0033471362     1     3     3     7
 -0.0132992178     1     3     4     2
 0.0105713563     1     3     4     4
 -0.0367711160     1     3     4     6
 -0.0105892907     1     3     4     8
 -0.0315437815     1     3     5     1
 0.0009725471     1     3     5     5
 0.0000151001     1     3     5     7
 0.0163404934     1     3     6     2
 -0.0163832658     1     3     6     4
 0.0221176310     1     3     6     6
 0.0125247815     1     3     6     8
 -0.0018053458     1     3     7     1
 0.0015343809     1     3     7     5
 0.0163144427     1     3     7     7
 -0.0015029744     1     3     8     2
 -0.0086707274     1     3     8     4
 0.0122475842     1     3     8     6
 -0.0067487634     1     3     8     8
 -0.0149901098     1     4     2     1
 -0.0315381092     1     4     2     3
 -0.0150178610     1     4     2     5
 -0.0017659156     1     4     2     7
 -0.0447642569     1     4     3     2
 -0.0222523906     1     4     3     6
 -0.0024755478     1     4     3     8
 -0.1932758730     1     4     4     1
 -0.0105713563     1     4     4     3
 -0.0014939793     1     4     4     5
 -0.0143552434     1     4     4     7
 0.0370597452     1     4     5     2
 -0.0111608097     1     4     5     6
 -0.0121227850     1     4     5     8
 0.0392887919     1     4     6     1
 0.0163832658     1     4     6     3
 -0.0097733439     1     4     6     5
 0.0023642444     1     4     6     7
 0.0051053907     1     4     7     2
 -0.0008740842     1     4     7     6
 -0.0096298947     1     4     7     8
 0.0027237623     1     4     8     1
 0.0086707274     1     4     8     3
 -0.0023955295     1     4     8     5
 -0.0086565079     1     4     8     7
 0.0010945096     1     5     2     2
 0.0150178610     1     5     2     4
 -0.0120934128     1     5     2     6
 -0.0027812794     1     5     2     8
 -0.0315437815     1     5     3     1
 -0.0314104592     1     5     3     3
 -0.0014761926     1     5     3     7
 0.0514877293     1     5     4     2
 0.0014939793     1     5     4     4
 -0.0012961076     1     5     4     6
 -0.0100010179     1     5     4     8
 -0.1890666323     1     5     5     1
 -0.0009725471     1     5     5     3
 -0.0140860545     1     5     5     7
 0.0459623220     1     5     6     2
 0.0097733439     1     5     6     4
 -0.0059876222     1     5     6     6
 -0.0084704387     1     5     6     8
 -0.0109005084     1     5     7     1
 -0.0015343809     1     5     7     3
 -0.0056057384     1     5     7     7
 0.0149585739     1     5     8     2
 0.0023955295     1     5     8     4
 -0.0007587559     1     5     8     6
 -0.0054934891     1     5     8     8
 -0.0102564985     1     6     2     1
 0.0055565128     1     6     2     3
 0.0120934128     1     6     2     5
 0.0004748933     1     6     2     7
 0.0218367015     1     6     3     2
 0.0222523906     1     6     3     4
 0.0005826368     1     6     3     8
 0.0392887919     1     6     4     1
 0.0367711160     1     6     4     3
 0.0012961076     1     6     4     5
 0.0030016443     1     6     4     7
 0.0565790695     1     6     5     2
 0.0111608097     1     6     5     4
 -0.0078707304     1     6     5     8
 -0.2161723133     1     6     6     1
 -0.0221176310     1     6     6     3
 0.0059876222     1     6     6     5
 -0.0155129032     1     6     6     7
 -0.0057848634     1     6     7     2
 0.0008740842     1     6     7     4
 0.0021723729     1     6     7     8
 -0.0316413749     1     6     8     1
 -0.0122475842     1     6     8     3
 0.0007587559     1     6     8     5
 -0.0023822514     1     6     8     7
 0.0037485559     1     7     2     2
 0.0017659156     1     7     2     4
 -0.0004748933     1     7     2     6
 -0.0008302949     1     7     2     8
 -0.0018053458     1     7     3     1
 0.0033471362     1     7     3     3
 0.0014761926     1     7     3     5
 0.0070468555     1     7     4     2
 0.0143552434     1     7     4     4
 -0.0030016443     1     7     4     6
 -0.0009118632     1     7     4     8
 -0.0109005084     1     7     5     1
 -0.0000151001     1     7     5     3
 0.0140860545     1     7     5     5
 -0.0062244052     1     7     6     2
 -0.0023642444     1     7     6     4
 0.0155129032     1     7     6     6
 0.0045556483     1     7     6     8
 -0.1876532654     1     7     7     1
 -0.0163144427     1     7     7     3
 0.0056057384     1     7     7     5
 0.0500087758     1     7     8     2
 0.0086565079     1     7     8     4
 0.0023822514     1     7     8     6
 0.0031143995     1     7     8     8
 0.0010292586     1     8     2     1
 0.0031106052     1     8     2     3
 0.0027812794     1     8     2     5
 0.0008302949     1     8     2     7
 0.0016080576     1     8     3     2
 0.0024755478     1     8     3     4
 -0.0005826368     1     8     3     6
 0.0027237623     1     8     4     1
 0.0105892907     1     8     4     3
 0.0100010179     1     8     4     5
 0.0009118632     1     8     4     7
 0.0173419775     1     8     5     2
 0.0121227850     1     8     5     4
 0.0078707304     1     8     5     6
 -0.0316413749     1     8     6     1
 -0.0125247815     1     8     6     3
 0.0084704387     1     8     6     5
 -0.0045556483     1     8     6     7
 0.0507090136     1     8     7     2
 0.0096298947     1     8     7     4
 -0.0021723729     1     8     7     6
 -0.1652054086     1     8     8     1
 0.0067487634     1     8     8     3
 0.0054934891     1     8     8     5
 -0.0031143995     1     8     8     7
 -0.1365836142     2     1     1     2
 -0.0149901098     2     1     1     4
 -0.0102564985     2     1     1     6
 0.0010292586     2     1     1     8
 -0.0489607463     2     1     3     2
 0.0132992178     2     1     3     4
 -0.0163404934     2     1     3     6
 0.0015029744     2     1     3     8
 0.0447642569     2     1     4     3
 -0.0370597452     2     1     4     5
 -0.0051053907     2     1     4     7
 -0.0010945096     2     1     5     2
 -0.0514877293     2     1     5     4
 -0.0459623220     2     1     5     6
 -0.0149585739     2     1     5     8
 -0.0218367015     2     1     6     3
 -0.0565790695     2     1     6     5
 0.0057848634     2     1     6     7
 -0.0037485559     2     1     7     2
 -0.0070468555     2     1     7     4
 0.0062244052     2     1     7     6
 -0.0500087758     2     1     7     8
 -0.0016080576     2     1     8     3
 -0.0173419775     2     1     8     5
 -0.0507090136     2     1     8     7
 0.1365836142     2     2     1     1
 0.0489607463     2     2     1     3
 0.0010945096     2     2     1     5
 0.0037485559     2     2     1     7
 0.0489607463     2     2     3     1
 0.1424177756     2     2     3     3
 0.0069859678     2     2     3     5
 0.0027294870     2     2     3     7
 0.1759281209     2     2     4     4
 -0.0076535685     2     2     4     6
 0.0074320203     2     2     4     8
 0.0010945096     2     2     5     1
 0.0069859678     2     2     5     3
 0.1839368827     2     2     5     5
 0.0083110596     2     2     5     7
 -0.0076535685     2     2     6     4
 0.1871462913     2     2     6     6
 0.0169999679     2     2     6     8
 0.0037485559     2     2     7     1
 0.0027294870     2     2     7     3
 0.0083110596     2     2     7     5
 0.1701861345     2     2     7     7
 0.0074320203     2     2     8     4
 0.0169999679     2     2     8     6
 0.1721397986     2     2     8     8
 -0.0489607463     2     3     1     2
 -0.0315381092     2     3     1     4
 0.0055565128     2     3     1     6
 0.0031106052     2     3     1     8
 -0.1424177756     2     3     3     2
 -0.0564420657     2     3     3     4
 0.0037885332     2     3     3     6
 0.0015857340     2     3     3     8
 -0.0447642569     2     3     4     1
 0.0574243285     2     3     4     5
 0.0000700419     2     3     4     7
 -0.0069859678     2     3     5     2
 0.0319533966     2     3     5     4
 0.0505897369     2     3     5     6
 0.0116093417     2     3     5     8
 0.0218367015     2     3     6     1
 0.0333918622     2     3     6     5
 -0.0069350725     2     3     6     7
 -0.0027294870     2     3     7     2
 -0.0009324795     2     3     7     4
 -0.0062682110     2     3     7     6
 0.0482730698     2     3     7     8
 0.0016080576     2     3     8     1
 0.0088103016     2     3     8     5
 0.0473105040     2     3     8     7
 0.0149901098     2     4     1     1
 0.0315381092     2     4     1     3
 0.0150178610     2     4     1     5
 0.0017659156     2     4     1     7
 -0.0132992178     2     4     3     1
 0.0564420657     2     4     3     3
 0.0274793817     2     4     3     5
 0.0007918188     2     4     3     7
 -0.1759281209     2     4     4     2
 -0.0365461705     2     4     4     6
 0.0030273863     2     4     4     8
 0.0514877293     2     4     5     1
 -0.0319533966     2     4     5     3
 0.0038107125     2     4     5     5
 0.0125137859     2     4     5     7
 0.0076535685     2     4     6     2
 0.0201810258     2     4     6     6
 0.0159276349     2     4     6     8
 0.0070468555     2     4     7     1
 0.0009324795     2     4     7     3
 0.0037853486     2     4     7     5
 0.0179100861     2     4     7     7
 -0.0074320203     2     4     8     2
 0.0091883715     2     4     8     6
 0.0003222904     2     4     8     8
 -0.0010945096     2     5     1     2
 -0.0150178610     2     5     1     4
 0.0120934128     2     5     1     6
 0.0027812794     2     5     1     8
 -0.0069859678     2     5     3     2
 -0.0274793817     2     5     3     4
 0.0176169694     2     5     3     6
 0.0023835492     2     5     3     8
 0.0370597452     2     5     4     1
 -0.0574243285     2     5     4     3
 0.0087904727     2     5     4     7
 -0.1839368827     2     5     5     2
 -0.0038107125     2     5     5     4
 -0.0072204078     2     5     5     6
 0.0183168404     2     5     5     8
 0.0565790695     2     5     6     1
 -0.0333918622     2     5     6     3
 0.0117426537     2     5     6     7
 -0.0083110596     2     5     7     2
 -0.0037853486     2     5     7     4
 0.0028662700     2     5     7     6
 0.0037116518     2     5     7     8
 0.0173419775     2     5     8     1
 -0.0088103016     2     5     8     3
 0.0060492512     2     5     8     7
 0.0102564985     2     6     1     1
 -0.0055565128     2     6     1     3
 -0.0120934128     2     6     1     5
 -0.0004748933     2     6     1     7
 0.0163404934     2     6     3     1
 -0.0037885332     2     6     3     3
 -0.0176169694     2     6     3     5
 -0.0006897238     2     6     3     7
 0.0076535685     2     6     4     2
 0.0365461705     2     6     4     4
 0.0069217342     2     6     4     8
 0.0459623220     2     6     5     1
 -0.0505897369     2     6     5     3
 0.0072204078     2     6     5     5
 0.0089385216     2     6     5     7
 -0.1871462913     2     6     6     2
 -0.0201810258     2     6     6     4
 0.0123992062     2     6     6     8
 -0.0062244052     2     6     7     1
 0.0062682110     2     6     7     3
 -0.0028662700     2     6     7     5
 0.0045523198     2     6     7     7
 -0.0169999679     2     6     8     2
 -0.0091883715     2     6     8     4
 0.0073423079     2     6     8     8
 -0.0037485559     2     7     1     2
 -0.0017659156     2     7     1     4
 0.0004748933     2     7     1     6
 0.0008302949     2     7     1     8
 -0.0027294870     2     7     3     2
 -0.0007918188     2     7     3     4
 0.0006897238     2     7     3     6
 0.0010252143     2     7     3     8
 0.0051053907     2     7     4     1
 -0.0000700419     2     7     4     3
 -0.0087904727     2     7     4     5
 -0.0083110596     2     7     5     2
 -0.0125137859     2     7     5     4
 -0.0089385216     2     7     5     6
 -0.0023224342     2     7     5     8
 -0.0057848634     2     7     6     1
 0.0069350725     2     7     6     3
 -0.0117426537     2     7     6     5
 -0.1701861345     2     7     7     2
 -0.0179100861     2     7     7     4
 -0.0045523198     2     7     7     6
 0.0000613544     2     7     7     8
 0.0507090136     2     7     8     1
 -0.0473105040     2     7     8     3
 -0.0060492512     2     7     8     5
 -0.0010292586     2     8     1     1
 -0.0031106052     2     8     1     3
 -0.0027812794     2     8     1     5
 -0.0008302949     2     8     1     7
 -0.0015029744     2     8     3     1
 -0.0015857340     2     8     3     3
 -0.0023835492     2     8     3     5
 -0.0010252143     2     8     3     7
 -0.0074320203     2     8     4     2
 -0.0030273863     2     8     4     4
 -0.0069217342     2     8     4     6
 0.0149585739     2     8     5     1
 -0.0116093417     2     8     5     3
 -0.0183168404     2     8     5     5
 0.0023224342     2     8     5     7
 -0.0169999679     2     8     6     2
 -0.0159276349     2     8     6     4
 -0.0123992062     2     8     6     6
 0.0500087758     2     8     7     1
 -0.0482730698     2     8     7     3
 -0.0037116518     2     8     7     5
 -0.0000613544     2     8     7     7
 -0.1721397986     2     8     8     2
 -0.0003222904     2     8     8     4
 -0.0073423079     2     8     8     6
 -0.1751050876     3     1     1     3
 -0.0315437815     3     1     1     5
 -0.0018053458     3     1     1     7
 0.0489607463     3     1     2     2
 -0.0132992178     3     1     2     4
 0.0163404934     3     1     2     6
 -0.0015029744     3     1     2     8
 0.0315381092     3     1     4     2
 0.0105713563     3     1     4     4
 -0.0163832658     3     1     4     6
 -0.0086707274     3     1     4     8
 0.0314104592     3     1     5     3
 0.0009725471     3     1     5     5
 0.0015343809     3     1     5     7
 -0.0055565128     3     1     6     2
 -0.0367711160     3     1     6     4
 0.0221176310     3     1     6     6
 0.0122475842     3     1     6     8
 -0.0033471362     3     1     7     3
 0.0000151001     3     1     7     5
 0.0163144427     3     1     7     7
 -0.0031106052     3     1     8     2
 -0.0105892907     3     1     8     4
 0.0125247815     3     1     8     6
 -0.0067487634     3     1     8     8
 -0.0447642569     3     2     1     4
 0.0218367015     3     2     1     6
 0.0016080576     3     2     1     8
 -0.0489607463     3     2     2     1
 -0.1424177756     3     2     2     3
 -0.0069859678     3     2     2     5
 -0.0027294870     3     2     2     7
 -0.0315381092     3     2     4     1
 -0.0564420657     3     2     4     3
 0.0319533966     3     2     4     5
 -0.0009324795     3     2     4     7
 0.0574243285     3     2     5     4
 0.0333918622     3     2     5     6
 0.0088103016     3     2     5     8
 0.0055565128     3     2     6     1
 0.0037885332     3     2     6     3
 0.0505897369     3     2     6     5
 -0.0062682110     3     2     6     7
 0.0000700419     3     2     7     4
 -0.0069350725     3     2     7     6
 0.0473105040     3     2     7     8
 0.0031106052     3     2     8     1
 0.0015857340     3     2     8     3
 0.0116093417     3     2     8     5
 0.0482730698     3     2     8     7
 0.1751050876     3     3     1     1
 -0.0314104592     3     3     1     5
 0.0033471362     3     3     1     7
 0.1424177756     3     3     2     2
 0.0564420657     3     3     2     4
 -0.0037885332     3     3     2     6
 -0.0015857340     3     3     2     8
 0.0564420657     3     3     4     2
 0.1802767203     3     3     4     4
 -0.0162949953     3     3     4     6
 -0.0034964853     3     3     4     8
 -0.0314104592     3     3     5     1
 0.1747356059     3     3     5     5
 0.0024394489     3     3     5     7
 -0.0037885332     3     3     6     2
 -0.0162949953     3     3     6     4
 0.1877913783     3     3     6     6
 0.0196801986     3     3     6     8
 0.0033471362     3     3     7     1
 0.0024394489     3     3     7     5
 0.1755351100     3     3     7     7
 -0.0015857340     3     3     8     2
 -0.0034964853     3     3     8     4
 0.0196801986     3     3     8     6
 0.1662776396     3     3     8     8
 0.0447642569     3     4     1     2
 0.0222523906     3     4     1     6
 0.0024755478     3     4     1     8
 0.0132992178     3     4     2     1
 -0.0564420657     3     4     2     3
 -0.0274793817     3     4     2     5
 -0.0007918188     3     4     2     7
 -0.0105713563     3     4     4     1
 -0.1802767203     3     4     4     3
 -0.0608867522     3     4     4     5
 -0.0025790504     3     4     4     7
 -0.0574243285     3     4     5     2
 -0.0507968232     3     4     5     6
 0.0009948756     3     4     5     8
 0.0367711160     3     4     6     1
 0.0162949953     3     4     6     3
 -0.0089542807     3     4     6     5
 0.0171267217     3     4     6     7
 -0.0000700419     3     4     7     2
 0.0072300765     3     4     7     6
 -0.0329092802     3     4     7     8
 0.0105892907     3     4     8     1
 0.0034964853     3     4     8     3
 0.0005487831     3     4     8     5
 -0.0296086923     3     4     8     7
 0.0315437815     3     5     1     1
 0.0314104592     3     5     1     3
 0.0014761926     3     5     1     7
 0.0069859678     3     5     2     2
 0.0274793817     3     5     2     4
 -0.0176169694     3     5     2     6
 -0.0023835492     3     5     2     8
 -0.0319533966     3     5     4     2
 0.0608867522     3     5     4     4
 -0.0418627818     3     5     4     6
 0.0002259420     3     5     4     8
 -0.0009725471     3     5     5     1
 -0.1747356059     3     5     5     3
 0.0088694780     3     5     5     7
 -0.0505897369     3     5     6     2
 0.0089542807     3     5     6     4
 0.0104865828     3     5     6     6
 0.0210733234     3     5     6     8
 -0.0000151001     3     5     7     1
 -0.0024394489     3     5     7     3
 0.0173538974     3     5     7     7
 -0.0116093417     3     5     8     2
 -0.0005487831     3     5     8     4
 0.0074181879     3     5     8     6
 0.0017039450     3     5     8     8
 -0.0218367015     3     6     1     2
 -0.0222523906     3     6     1     4
 -0.0005826368     3     6     1     8
 -0.0163404934     3     6     2     1
 0.0037885332     3     6     2     3
 0.0176169694     3     6     2     5
 0.0006897238     3     6     2     7
 0.0163832658     3     6     4     1
 0.0162949953     3     6     4     3
 0.0418627818     3     6     4     5
 0.0097759678     3     6     4     7
 -0.0333918622     3     6     5     2
 0.0507968232     3     6     5     4
 0.0135961173     3     6     5     8
 -0.0221176310     3     6     6     1
 -0.1877913783     3     6     6     3
 -0.0104865828     3     6     6     5
 -0.0012112449     3     6     6     7
 0.0069350725     3     6     7     2
 -0.0072300765     3     6     7     4
 0.0100778726     3     6     7     8
 -0.0125247815     3     6     8     1
 -0.0196801986     3     6     8     3
 -0.0074181879     3     6     8     5
 0.0090242377     3     6     8     7
 0.0018053458     3     7     1     1
 -0.0033471362     3     7     1     3
 -0.0014761926     3     7     1     5
 0.0027294870     3     7     2     2
 0.0007918188     3     7     2     4
 -0.0006897238     3     7     2     6
 -0.0010252143     3     7     2     8
 0.0009324795     3     7     4     2
 0.0025790504     3     7     4     4
 -0.0097759678     3     7     4     6
 -0.0033716980     3     7     4     8
 -0.0015343809     3     7     5     1
 -0.0024394489     3     7     5     3
 -0.0088694780     3     7     5     5
 0.0062682110     3     7     6     2
 -0.0171267217     3     7     6     4
 0.0012112449     3     7     6     6
 0.0010704295     3     7     6     8
 -0.0163144427     3     7     7     1
 -0.1755351100     3     7     7     3
 -0.0173538974     3     7     7     5
 -0.0482730698     3     7     8     2
 0.0296086923     3     7     8     4
 -0.0090242377     3     7     8     6
 0.0005423139     3     7     8     8
 -0.0016080576     3     8     1     2
 -0.0024755478     3     8     1     4
 0.0005826368     3     8     1     6
 0.0015029744     3     8     2     1
 0.0015857340     3     8     2     3
 0.0023835492     3     8     2     5
 0.0010252143     3     8     2     7
 0.0086707274     3     8     4     1
 0.0034964853     3     8     4     3
 -0.0002259420     3     8     4     5
 0.0033716980     3     8     4     7
 -0.0088103016     3     8     5     2
 -0.0009948756     3     8     5     4
 -0.0135961173     3     8     5     6
 -0.0122475842     3     8     6     1
 -0.0196801986     3     8     6     3
 -0.0210733234     3     8     6     5
 -0.0010704295     3     8     6     7
 -0.0473105040     3     8     7     2
 0.0329092802     3     8     7     4
 -0.0100778726     3     8     7     6
 0.0067487634     3     8     8     1
 -0.1662776396     3     8     8     3
 -0.0017039450     3     8     8     5
 -0.0005423139     3     8     8     7
 -0.0149901098     4     1     1     2
 -0.1932758730     4     1     1     4
 0.0392887919     4     1     1     6
 0.0027237623     4     1     1     8
 -0.0447642569     4     1     2     3
 0.0370597452     4     1     2     5
 0.0051053907     4     1     2     7
 -0.0315381092     4     1     3     2
 -0.0105713563     4     1     3     4
 0.0163832658     4     1     3     6
 0.0086707274     4     1     3     8
 -0.0150178610     4     1     5     2
 -0.0014939793     4     1     5     4
 -0.0097733439     4     1     5     6
 -0.0023955295     4     1     5     8
 -0.0222523906     4     1     6     3
 -0.0111608097     4     1     6     5
 -0.0008740842     4     1     6     7
 -0.0017659156     4     1     7     2
 -0.0143552434     4     1     7     4
 0.0023642444     4     1     7     6
 -0.0086565079     4     1     7     8
 -0.0024755478     4     1     8     3
 -0.0121227850     4     1     8     5
 -0.0096298947     4     1     8     7
 0.0149901098     4     2     1     1
 -0.0132992178     4     2     1     3
 0.0514877293     4     2     1     5
 0.0070468555     4     2     1     7
 -0.1759281209     4     2     2     4
 0.0076535685     4     2     2     6
 -0.0074320203     4     2     2     8
 0.0315381092     4     2     3     1
 0.0564420657     4     2     3     3
 -0.0319533966     4     2     3     5
 0.0009324795     4     2     3     7
 0.0150178610     4     2     5     1
 0.0274793817     4     2     5     3
 0.0038107125     4     2     5     5
 0.0037853486     4     2     5     7
 -0.0365461705     4     2     6     4
 0.0201810258     4     2     6     6
 0.0091883715     4     2     6     8
 0.0017659156     4     2     7     1
 0.0007918188     4     2     7     3
 0.0125137859     4     2     7     5
 0.0179100861     4     2     7     7
 0.0030273863     4     2     8     4
 0.0159276349     4     2     8     6
 0.0003222904     4     2     8     8
 0.0132992178     4     3     1     2
 -0.0105713563     4     3     1     4
 0.0367711160     4     3     1     6
 0.0105892907     4     3     1     8
 0.0447642569     4     3     2     1
 -0.0574243285     4     3     2     5
 -0.0000700419     4     3     2     7
 -0.0564420657     4     3     3     2
 -0.1802767203     4     3     3     4
 0.0162949953     4     3     3     6
 0.0034964853     4     3     3     8
 -0.0274793817     4     3     5     2
 -0.0608867522     4     3     5     4
 -0.0089542807     4     3     5     6
 0.0005487831     4     3     5     8
 0.0222523906     4     3     6     1
 -0.0507968232     4     3     6     5
 0.0072300765     4     3     6     7
 -0.0007918188     4     3     7     2
 -0.0025790504     4     3     7     4
 0.0171267217     4     3     7     6
 -0.0296086923     4     3     7     8
 0.0024755478     4     3     8     1
 0.0009948756     4     3     8     5
 -0.0329092802     4     3     8     7
 0.1932758730     4     4     1     1
 0.0105713563     4     4     1     3
 0.0014939793     4     4     1     5
 0.0143552434     4     4     1     7
 0.1759281209     4     4     2     2
 0.0365461705     4     4     2     6
 -0.0030273863     4     4     2     8
 0.0105713563     4     4     3     1
 0.1802767203     4     4     3     3
 0.0608867522     4     4     3     5
 0.0025790504     4     4     3     7
 0.0014939793     4     4     5     1
 0.0608867522     4     4     5     3
 0.1417903542     4     4     5     5
 0.0039175557     4     4     5     7
 0.0365461705     4     4     6     2
 0.1706065151     4     4     6     6
 0.0103123159     4     4     6     8
 0.0143552434     4     4     7     1
 0.0025790504     4     4     7     3
 0.0039175557     4     4     7     5
 0.1749700278     4     4     7     7
 -0.0030273863     4     4     8     2
 0.0103123159     4     4     8     6
 0.1617735093     4     4     8     8
 -0.0514877293     4     5     1     2
 -0.0014939793     4     5     1     4
 0.0012961076     4     5     1     6
 0.0100010179     4     5     1     8
 -0.0370597452     4     5     2     1
 0.0574243285     4     5     2     3
 -0.0087904727     4     5     2     7
 0.0319533966     4     5     3     2
 -0.0608867522     4     5     3     4
 0.0418627818     4     5     3     6
 -0.0002259420     4     5     3     8
 -0.0038107125     4     5     5     2
 -0.1417903542     4     5     5     4
 0.0585634630     4     5     5     6
 0.0047404434     4     5     5     8
 0.0111608097     4     5     6     1
 0.0507968232     4     5     6     3
 -0.0126588254     4     5     6     7
 -0.0125137859     4     5     7     2
 -0.0039175557     4     5     7     4
 -0.0048554064     4     5     7     6
 0.0488696124     4     5     7     8
 0.0121227850     4     5     8     1
 -0.0009948756     4     5     8     3
 0.0466288039     4     5     8     7
 -0.0392887919     4     6     1     1
 -0.0367711160     4     6     1     3
 -0.0012961076     4     6     1     5
 -0.0030016443     4     6     1     7
 -0.0076535685     4     6     2     2
 -0.0365461705     4     6     2     4
 -0.0069217342     4     6     2     8
 -0.0163832658     4     6     3     1
 -0.0162949953     4     6     3     3
 -0.0418627818     4     6     3     5
 -0.0097759678     4     6     3     7
 0.0097733439     4     6     5     1
 0.0089542807     4     6     5     3
 -0.0585634630     4     6     5     5
 -0.0078090037     4     6     5     7
 -0.0201810258     4     6     6     2
 -0.1706065151     4     6     6     4
 -0.0142802710     4     6     6     8
 -0.0023642444     4     6     7     1
 -0.0171267217     4     6     7     3
 0.0048554064     4     6     7     5
 -0.0203229013     4     6     7     7
 -0.0159276349     4     6     8     2
 -0.0103123159     4     6     8     4
 0.0043082451     4     6     8     8
 -0.0070468555     4     7     1     2
 -0.0143552434     4     7     1     4
 0.0030016443     4     7     1     6
 0.0009118632     4     7     1     8
 -0.0051053907     4     7     2     1
 0.0000700419     4     7     2     3
 0.0087904727     4     7     2     5
 -0.0009324795     4     7     3     2
 -0.0025790504     4     7     3     4
 0.0097759678     4     7     3     6
 0.0033716980     4     7     3     8
 -0.0037853486     4     7     5     2
 -0.0039175557     4     7     5     4
 0.0078090037     4     7     5     6
 0.0022443282     4     7     5     8
 0.0008740842     4     7     6     1
 -0.0072300765     4     7     6     3
 0.0126588254     4     7     6     5
 -0.0179100861     4     7     7     2
 -0.1749700278     4     7     7     4
 0.0203229013     4     7     7     6
 0.0031833762     4     7     7     8
 0.0096298947     4     7     8     1
 0.0329092802     4     7     8     3
 -0.0466288039     4     7     8     5
 -0.0027237623     4     8     1     1
 -0.0105892907     4     8     1     3