&FCI NORB=  6,NELEC=  6,MS2=0,
 ORBSYM=1,1,1,1,1,1
 ISYM=1,
&END
 0.1372972799     1     1     2     2
 0.0154743263     1     1     2     4
 0.0090119575     1     1     2     6
 0.1759018012     1     1     3     3
 -0.0320635012     1     1     3     5
 0.0154743263     1     1     4     2
 0.1908331044     1     1     4     4
 -0.0392418057     1     1     4     6
 -0.0320635012     1     1     5     3
 0.1881587774     1     1     5     5
 0.0090119575     1     1     6     2
 -0.0392418057     1     1     6     4
 0.2156911863     1     1     6     6
 -0.1372972799     1     2     2     1
 0.0496720624     1     2     2     3
 -0.0007541117     1     2     2     5
 -0.0455615667     1     2     3     4
 0.0216777330     1     2     3     6
 -0.0154743263     1     2     4     1
 -0.0130618048     1     2     4     3
 -0.0504700293     1     2     4     5
 -0.0362249268     1     2     5     4
 -0.0558798969     1     2     5     6
 -0.0090119575     1     2     6     1
 0.0163038129     1     2     6     3
 -0.0457967030     1     2     6     5
 -0.0496720624     1     3     2     2
 -0.0324997327     1     3     2     4
 0.0054748619     1     3     2     6
 -0.1759018012     1     3     3     1
 0.0319032349     1     3     3     5
 0.0130618048     1     3     4     2
 -0.0105724082     1     3     4     4
 0.0355537541     1     3     4     6
 0.0320635012     1     3     5     1
 -0.0016013071     1     3     5     5
 -0.0163038129     1     3     6     2
 0.0159434340     1     3     6     4
 -0.0220195325     1     3     6     6
 -0.0154743263     1     4     2     1
 0.0324997327     1     4     2     3
 -0.0148649335     1     4     2     5
 0.0455615667     1     4     3     2
 0.0228303715     1     4     3     6
 -0.1908331044     1     4     4     1
 0.0105724082     1     4     4     3
 -0.0017174388     1     4     4     5
 0.0362249268     1     4     5     2
 -0.0112899431     1     4     5     6
 0.0392418057     1     4     6     1
 -0.0159434340     1     4     6     3
 -0.0100310757     1     4     6     5
 0.0007541117     1     5     2     2
 0.0148649335     1     5     2     4
 -0.0123711774     1     5     2     6
 0.0320635012     1     5     3     1
 -0.0319032349     1     5     3     3
 0.0504700293     1     5     4     2
 0.0017174388     1     5     4     4
 -0.0011220826     1     5     4     6
 -0.1881587774     1     5     5     1
 0.0016013071     1     5     5     3
 0.0457967030     1     5     6     2
 0.0100310757     1     5     6     4
 -0.0059495944     1     5     6     6
 -0.0090119575     1     6     2     1
 -0.0054748619     1     6     2     3
 0.0123711774     1     6     2     5
 -0.0216777330     1     6     3     2
 -0.0228303715     1     6     3     4
 0.0392418057     1     6     4     1
 -0.0355537541     1     6     4     3
 0.0011220826     1     6     4     5
 0.0558798969     1     6     5     2
 0.0112899431     1     6     5     4
 -0.2156911863     1     6     6     1
 0.0220195325     1     6     6     3
 0.0059495944     1     6     6     5
 -0.1372972799     2     1     1     2
 -0.0154743263     2     1     1     4
 -0.0090119575     2     1     1     6
 0.0496720624     2     1     3     2
 -0.0130618048     2     1     3     4
 0.0163038129     2     1     3     6
 -0.0455615667     2     1     4     3
 -0.0362249268     2     1     4     5
 -0.0007541117     2     1     5     2
 -0.0504700293     2     1     5     4
 -0.0457967030     2     1     5     6
 0.0216777330     2     1     6     3
 -0.0558798969     2     1     6     5
 0.1372972799     2     2     1     1
 -0.0496720624     2     2     1     3
 0.0007541117     2     2     1     5
 -0.0496720624     2     2     3     1
 0.1430066537     2     2     3     3
 -0.0074489138     2     2     3     5
 0.1732060322     2     2     4     4
 -0.0077026204     2     2     4     6
 0.0007541117     2     2     5     1
 -0.0074489138     2     2     5     3
 0.1823922210     2     2     5     5
 -0.0077026204     2     2     6     4
 0.1874466543     2     2     6     6
 0.0496720624     2     3     1     2
 0.0324997327     2     3     1     4
 -0.0054748619     2     3     1     6
 -0.1430066537     2     3     3     2
 -0.0567709565     2     3     3     4
 0.0042866377     2     3     3     6
 0.0455615667     2     3     4     1
 -0.0554766662     2     3     4     5
 0.0074489138     2     3     5     2
 -0.0304364844     2     3     5     4
 -0.0508250448     2     3     5     6
 -0.0216777330     2     3     6     1
 -0.0333667020     2     3     6     5
 0.0154743263     2     4     1     1
 -0.0324997327     2     4     1     3
 0.0148649335     2     4     1     5
 0.0130618048     2     4     3     1
 0.0567709565     2     4     3     3
 -0.0284496981     2     4     3     5
 -0.1732060322     2     4     4     2
 -0.0364847881     2     4     4     6
 0.0504700293     2     4     5     1
 0.0304364844     2     4     5     3
 0.0042034811     2     4     5     5
 0.0077026204     2     4     6     2
 0.0203359592     2     4     6     6
 -0.0007541117     2     5     1     2
 -0.0148649335     2     5     1     4
 0.0123711774     2     5     1     6
 0.0074489138     2     5     3     2
 0.0284496981     2     5     3     4
 -0.0182119659     2     5     3     6
 0.0362249268     2     5     4     1
 0.0554766662     2     5     4     3
 -0.1823922210     2     5     5     2
 -0.0042034811     2     5     5     4
 -0.0068872154     2     5     5     6
 0.0558798969     2     5     6     1
 0.0333667020     2     5     6     3
 0.0090119575     2     6     1     1
 0.0054748619     2     6     1     3
 -0.0123711774     2     6     1     5
 -0.0163038129     2     6     3     1
 -0.0042866377     2     6     3     3
 0.0182119659     2     6     3     5
 0.0077026204     2     6     4     2
 0.0364847881     2     6     4     4
 0.0457967030     2     6     5     1
 0.0508250448     2     6     5     3
 0.0068872154     2     6     5     5
 -0.1874466543     2     6     6     2
 -0.0203359592     2     6     6     4
 -0.1759018012     3     1     1     3
 0.0320635012     3     1     1     5
 -0.0496720624     3     1     2     2
 0.0130618048     3     1     2     4
 -0.0163038129     3     1     2     6
 -0.0324997327     3     1     4     2
 -0.0105724082     3     1     4     4
 0.0159434340     3     1     4     6
 0.0319032349     3     1     5     3
 -0.0016013071     3     1     5     5
 0.0054748619     3     1     6     2
 0.0355537541     3     1     6     4
 -0.0220195325     3     1     6     6
 0.0455615667     3     2     1     4
 -0.0216777330     3     2     1     6
 0.0496720624     3     2     2     1
 -0.1430066537     3     2     2     3
 0.0074489138     3     2     2     5
 0.0324997327     3     2     4     1
 -0.0567709565     3     2     4     3
 -0.0304364844     3     2     4     5
 -0.0554766662     3     2     5     4
 -0.0333667020     3     2     5     6
 -0.0054748619     3     2     6     1
 0.0042866377     3     2     6     3
 -0.0508250448     3     2     6     5
 0.1759018012     3     3     1     1
 -0.0319032349     3     3     1     5
 0.1430066537     3     3     2     2
 0.0567709565     3     3     2     4
 -0.0042866377     3     3     2     6
 0.0567709565     3     3     4     2
 0.1766765364     3     3     4     4
 -0.0158509010     3     3     4     6
 -0.0319032349     3     3     5     1
 0.1734480137     3     3     5     5
 -0.0042866377     3     3     6     2
 -0.0158509010     3     3     6     4
 0.1871917159     3     3     6     6
 -0.0455615667     3     4     1     2
 -0.0228303715     3     4     1     6
 -0.0130618048     3     4     2     1
 -0.0567709565     3     4     2     3
 0.0284496981     3     4     2     5
 0.0105724082     3     4     4     1
 -0.1766765364     3     4     4     3
 0.0614537509     3     4     4     5
 0.0554766662     3     4     5     2
 0.0512481646     3     4     5     6
 -0.0355537541     3     4     6     1
 0.0158509010     3     4     6     3
 0.0089493904     3     4     6     5
 -0.0320635012     3     5     1     1
 0.0319032349     3     5     1     3
 -0.0074489138     3     5     2     2
 -0.0284496981     3     5     2     4
 0.0182119659     3     5     2     6
 0.0304364844     3     5     4     2
 -0.0614537509     3     5     4     4
 0.0423426910     3     5     4     6
 0.0016013071     3     5     5     1
 -0.1734480137     3     5     5     3
 0.0508250448     3     5     6     2
 -0.0089493904     3     5     6     4
 -0.0106526640     3     5     6     6
 0.0216777330     3     6     1     2
 0.0228303715     3     6     1     4
 0.0163038129     3     6     2     1
 0.0042866377     3     6     2     3
 -0.0182119659     3     6     2     5
 -0.0159434340     3     6     4     1
 0.0158509010     3     6     4     3
 -0.0423426910     3     6     4     5
 0.0333667020     3     6     5     2
 -0.0512481646     3     6     5     4
 0.0220195325     3     6     6     1
 -0.1871917159     3     6     6     3
 0.0106526640     3     6     6     5
 -0.0154743263     4     1     1     2
 -0.1908331044     4     1     1     4
 0.0392418057     4     1     1     6
 0.0455615667     4     1     2     3
 0.0362249268     4     1     2     5
 0.0324997327     4     1     3     2
 0.0105724082     4     1     3     4
 -0.0159434340     4     1     3     6
 -0.0148649335     4     1     5     2
 -0.0017174388     4     1     5     4
 -0.0100310757     4     1     5     6
 0.0228303715     4     1     6     3
 -0.0112899431     4     1     6     5
 0.0154743263     4     2     1     1
 0.0130618048     4     2     1     3
 0.0504700293     4     2     1     5
 -0.1732060322     4     2     2     4
 0.0077026204     4     2     2     6
 -0.0324997327     4     2     3     1
 0.0567709565     4     2     3     3
 0.0304364844     4     2     3     5
 0.0148649335     4     2     5     1
 -0.0284496981     4     2     5     3
 0.0042034811     4     2     5     5
 -0.0364847881     4     2     6     4
 0.0203359592     4     2     6     6
 -0.0130618048     4     3     1     2
 0.0105724082     4     3     1     4
 -0.0355537541     4     3     1     6
 -0.0455615667     4     3     2     1
 0.0554766662     4     3     2     5
 -0.0567709565     4     3     3     2
 -0.1766765364     4     3     3     4
 0.0158509010     4     3     3     6
 0.0284496981     4     3     5     2
 0.0614537509     4     3     5     4
 0.0089493904     4     3     5     6
 -0.0228303715     4     3     6     1
 0.0512481646     4     3     6     5
 0.1908331044     4     4     1     1
 -0.0105724082     4     4     1     3
 0.0017174388     4     4     1     5
 0.1732060322     4     4     2     2
 0.0364847881     4     4     2     6
 -0.0105724082     4     4     3     1
 0.1766765364     4     4     3     3
 -0.0614537509     4     4     3     5
 0.0017174388     4     4     5     1
 -0.0614537509     4     4     5     3
 0.1419903109     4     4     5     5
 0.0364847881     4     4     6     2
 0.1704737911     4     4     6     6
 -0.0504700293     4     5     1     2
 -0.0017174388     4     5     1     4
 0.0011220826     4     5     1     6
 -0.0362249268     4     5     2     1
 -0.0554766662     4     5     2     3
 -0.0304364844     4     5     3     2
 0.0614537509     4     5     3     4
 -0.0423426910     4     5     3     6
 -0.0042034811     4     5     5     2
 -0.1419903109     4     5     5     4
 0.0586984713     4     5     5     6
 0.0112899431     4     5     6     1
 -0.0512481646     4     5     6     3
 -0.0392418057     4     6     1     1
 0.0355537541     4     6     1     3
 -0.0011220826     4     6     1     5
 -0.0077026204     4     6     2     2
 -0.0364847881     4     6     2     4
 0.0159434340     4     6     3     1
 -0.0158509010     4     6     3     3
 0.0423426910     4     6     3     5
 0.0100310757     4     6     5     1
 -0.0089493904     4     6     5     3
 -0.0586984713     4     6     5     5
 -0.0203359592     4     6     6     2
 -0.1704737911     4     6     6     4
 0.0320635012     5     1     1     3
 -0.1881587774     5     1     1     5
 0.0007541117     5     1     2     2
 0.0504700293     5     1     2     4
 0.0457967030     5     1     2     6
 -0.0319032349     5     1     3     3
 0.0016013071     5     1     3     5
 0.0148649335     5     1     4     2
 0.0017174388     5     1     4     4
 0.0100310757     5     1     4     6
 -0.0123711774     5     1     6     2
 -0.0011220826     5     1     6     4
 -0.0059495944     5     1     6     6
 0.0362249268     5     2     1     4
 0.0558798969     5     2     1     6
 -0.0007541117     5     2     2     1
 0.0074489138     5     2     2     3
 -0.1823922210     5     2     2     5
 0.0554766662     5     2     3     4
 0.0333667020     5     2     3     6
 -0.0148649335     5     2     4     1
 0.0284496981     5     2     4     3
 -0.0042034811     5     2     4     5
 0.0123711774     5     2     6     1
 -0.0182119659     5     2     6     3
 -0.0068872154     5     2     6     5
 -0.0320635012     5     3     1     1
 0.0016013071     5     3     1     5
 -0.0074489138     5     3     2     2
 0.0304364844     5     3     2     4
 0.0508250448     5     3     2     6
 0.0319032349     5     3     3     1
 -0.1734480137     5     3     3     5
 -0.0284496981     5     3     4     2
 -0.0614537509     5     3     4     4
 -0.0089493904     5     3     4     6
 0.0182119659     5     3     6     2
 0.0423426910     5     3     6     4
 -0.0106526640     5     3     6     6
 -0.0362249268     5     4     1     2
 0.0112899431     5     4     1     6
 -0.0504700293     5     4     2     1
 -0.0304364844     5     4     2     3
 -0.0042034811     5     4     2     5
 -0.0554766662     5     4     3     2
 -0.0512481646     5     4     3     6
 -0.0017174388     5     4     4     1
 0.0614537509     5     4     4     3
 -0.1419903109     5     4     4     5
 0.0011220826     5     4     6     1
 -0.0423426910     5     4     6     3
 0.0586984713     5     4     6     5
 0.1881587774     5     5     1     1
 -0.0016013071     5     5     1     3
 0.1823922210     5     5     2     2
 0.0042034811     5     5     2     4
 0.0068872154     5     5     2     6
 -0.0016013071     5     5     3     1
 0.1734480137     5     5     3     3
 0.0042034811     5     5     4     2
 0.1419903109     5     5     4     4
 -0.0586984713     5     5     4     6
 0.0068872154     5     5     6     2
 -0.0586984713     5     5     6     4
 0.1437924963     5     5     6     6
 -0.0558798969     5     6     1     2
 -0.0112899431     5     6     1     4
 -0.0457967030     5     6     2     1
 -0.0508250448     5     6     2     3
 -0.0068872154     5     6     2     5
 -0.0333667020     5     6     3     2
 0.0512481646     5     6     3     4
 -0.0100310757     5     6     4     1
 0.0089493904     5     6     4     3
 0.0586984713     5     6     4     5
 0.0059495944     5     6     6     1
 0.0106526640     5     6     6     3
 -0.1437924963     5     6     6     5
 -0.0090119575     6     1     1     2
 0.0392418057     6     1     1     4
 -0.2156911863     6     1     1     6
 -0.0216777330     6     1     2     3
 0.0558798969     6     1     2     5
 -0.0054748619     6     1     3     2
 -0.0355537541     6     1     3     4
 0.0220195325     6     1     3     6
 -0.0228303715     6     1     4     3
 0.0112899431     6     1     4     5
 0.0123711774     6     1     5     2
 0.0011220826     6     1     5     4
 0.0059495944     6     1     5     6
 0.0090119575     6     2     1     1
 -0.0163038129     6     2     1     3
 0.0457967030     6     2     1     5
 0.0077026204     6     2     2     4
 -0.1874466543     6     2     2     6
 0.0054748619     6     2     3     1
 -0.0042866377     6     2     3     3
 0.0508250448     6     2     3     5
 0.0364847881     6     2     4     4
 -0.0203359592     6     2     4     6
 -0.0123711774     6     2     5     1
 0.0182119659     6     2     5     3
 0.0068872154     6     2     5     5
 0.0163038129     6     3     1     2
 -0.0159434340     6     3     1     4
 0.0220195325     6     3     1     6
 0.0216777330     6     3     2     1
 0.0333667020     6     3     2     5
 0.0042866377     6     3     3     2
 0.0158509010     6     3     3     4
 -0.1871917159     6     3     3     6
 0.0228303715     6     3     4     1
 -0.0512481646     6     3     4     5
 -0.0182119659     6     3     5     2
 -0.0423426910     6     3     5     4
 0.0106526640     6     3     5     6
 -0.0392418057     6     4     1     1
 0.0159434340     6     4     1     3
 0.0100310757     6     4     1     5
 -0.0077026204     6     4     2     2
 -0.0203359592     6     4     2     6
 0.0355537541     6     4     3     1
 -0.0158509010     6     4     3     3
 -0.0089493904     6     4     3     5
 -0.0364847881     6     4     4     2
 -0.1704737911     6     4     4     6
 -0.0011220826     6     4     5     1
 0.0423426910     6     4     5     3
 -0.0586984713     6     4     5     5
 -0.0457967030     6     5     1     2
 -0.0100310757     6     5     1     4
 0.0059495944     6     5     1     6
 -0.0558798969     6     5     2     1
 -0.0333667020     6     5     2     3
 -0.0508250448     6     5     3     2
 0.0089493904     6     5     3     4
 0.0106526640     6     5     3     6
 -0.0112899431     6     5     4     1
 0.0512481646     6     5     4     3
 -0.0068872154     6     5     5     2
 0.0586984713     6     5     5     4
 -0.1437924963     6     5     5     6
 0.2156911863     6     6     1     1
 -0.0220195325     6     6     1     3
 -0.0059495944     6     6     1     5
 0.1874466543     6     6     2     2
 0.0203359592     6     6     2     4
 -0.0220195325     6     6     3     1
 0.1871917159     6     6     3     3
 -0.0106526640     6     6     3     5
 0.0203359592     6     6     4     2
 0.1704737911     6     6     4     4
 -0.0059495944     6     6     5     1
 -0.0106526640     6     6     5     3
 0.1437924963     6     6     5     5
0.0 0 0 0 0
 0.1372972799     1     1     2     2
 0.0154743263     1     1     2     4
 0.0090119575     1     1     2     6
 0.1759018012     1     1     3     3
 -0.0320635012     1     1     3     5
 0.0154743263     1     1     4     2
 0.1908331044     1     1     4     4
 -0.0392418057     1     1     4     6
 -0.0320635012     1     1     5     3
 0.1881587774     1     1     5     5
 0.0090119575     1     1     6     2
 -0.0392418057     1     1     6     4
 0.2156911863     1     1     6     6
 -0.1372972799     1     2     2     1
 0.0496720624     1     2     2     3
 -0.0007541117     1     2     2     5
 -0.0455615667     1     2     3     4
 0.0216777330     1     2     3     6
 -0.0154743263     1     2     4     1
 -0.0130618048     1     2     4     3
 -0.0504700293     1     2     4     5
 -0.0362249268     1     2     5     4
 -0.0558798969     1     2     5     6
 -0.0090119575     1     2     6     1
 0.0163038129     1     2     6     3
 -0.0457967030     1     2     6     5
 -0.0496720624     1     3     2     2
 -0.0324997327     1     3     2     4
 0.0054748619     1     3     2     6
 -0.1759018012     1     3     3     1
 0.0319032349     1     3     3     5
 0.0130618048     1     3     4     2
 -0.0105724082     1     3     4     4
 0.0355537541     1     3     4     6
 0.0320635012     1     3     5     1
 -0.0016013071     1     3     5     5
 -0.0163038129     1     3     6     2
 0.0159434340     1     3     6     4
 -0.0220195325     1     3     6     6
 -0.0154743263     1     4     2     1
 0.0324997327     1     4     2     3
 -0.0148649335     1     4     2     5
 0.0455615667     1     4     3     2
 0.0228303715     1     4     3     6
 -0.1908331044     1     4     4     1
 0.0105724082     1     4     4     3
 -0.0017174388     1     4     4     5
 0.0362249268     1     4     5     2
 -0.0112899431     1     4     5     6
 0.0392418057     1     4     6     1
 -0.0159434340     1     4     6     3
 -0.0100310757     1     4     6     5
 0.0007541117     1     5     2     2
 0.0148649335     1     5     2     4
 -0.0123711774     1     5     2     6
 0.0320635012     1     5     3     1
 -0.0319032349     1     5     3     3
 0.0504700293     1     5     4     2
 0.0017174388     1     5     4     4
 -0.0011220826     1     5     4     6
 -0.1881587774     1     5     5     1
 0.0016013071     1     5     5     3
 0.0457967030     1     5     6     2
 0.0100310757     1     5     6     4
 -0.0059495944     1     5     6     6
 -0.0090119575     1     6     2     1
 -0.0054748619     1     6     2     3
 0.0123711774     1     6     2     5
 -0.0216777330     1     6     3     2
 -0.0228303715     1     6     3     4
 0.0392418057     1     6     4     1
 -0.0355537541     1     6     4     3
 0.0011220826     1     6     4     5
 0.0558798969     1     6     5     2
 0.0112899431     1     6     5     4
 -0.2156911863     1     6     6     1
 0.0220195325     1     6     6     3
 0.0059495944     1     6     6     5
 -0.1372972799     2     1     1     2
 -0.0154743263     2     1     1     4
 -0.0090119575     2     1     1     6
 0.0496720624     2     1     3     2
 -0.0130618048     2     1     3     4
 0.0163038129     2     1     3     6
 -0.0455615667     2     1     4     3
 -0.0362249268     2     1     4     5
 -0.0007541117     2     1     5     2
 -0.0504700293     2     1     5     4
 -0.0457967030     2     1     5     6
 0.0216777330     2     1     6     3
 -0.0558798969     2     1     6     5
 0.1372972799     2     2     1     1
 -0.0496720624     2     2     1     3
 0.0007541117     2     2     1     5
 -0.0496720624     2     2     3     1
 0.1430066537     2     2     3     3
 -0.0074489138     2     2     3     5
 0.1732060322     2     2     4     4
 -0.0077026204     2     2     4     6
 0.0007541117     2     2     5     1
 -0.0074489138     2     2     5     3
 0.1823922210     2     2     5     5
 -0.0077026204     2     2     6     4
 0.1874466543     2     2     6     6
 0.0496720624     2     3     1     2
 0.0324997327     2     3     1     4
 -0.0054748619     2     3     1     6
 -0.1430066537     2     3     3     2
 -0.0567709565     2     3     3     4
 0.0042866377     2     3     3     6
 0.0455615667     2     3     4     1
 -0.0554766662     2     3     4     5
 0.0074489138     2     3     5     2
 -0.0304364844     2     3     5     4
 -0.0508250448     2     3     5     6
 -0.0216777330     2     3     6     1
 -0.0333667020     2     3     6     5
 0.0154743263     2     4     1     1
 -0.0324997327     2     4     1     3
 0.0148649335     2     4     1     5
 0.0130618048     2     4     3     1
 0.0567709565     2     4     3     3
 -0.0284496981     2     4     3     5
 -0.1732060322     2     4     4     2
 -0.0364847881     2     4     4     6
 0.0504700293     2     4     5     1
 0.0304364844     2     4     5     3
 0.0042034811     2     4     5     5
 0.0077026204     2     4     6     2
 0.0203359592     2     4     6     6
 -0.0007541117     2     5     1     2
 -0.0148649335     2     5     1     4
 0.0123711774     2     5     1     6
 0.0074489138     2     5     3     2
 0.0284496981     2     5     3     4
 -0.0182119659     2     5     3     6
 0.0362249268     2     5     4     1
 0.0554766662     2     5     4     3
 -0.1823922210     2     5     5     2
 -0.0042034811     2     5     5     4
 -0.0068872154     2     5     5     6
 0.0558798969     2     5     6     1
 0.0333667020     2     5     6     3
 0.0090119575     2     6     1     1
 0.0054748619     2     6     1     3
 -0.0123711774     2     6     1     5
 -0.0163038129     2     6     3     1
 -0.0042866377     2     6     3     3
 0.0182119659     2     6     3     5
 0.0077026204     2     6     4     2
 0.0364847881     2     6     4     4
 0.0457967030     2     6     5     1
 0.0508250448     2     6     5     3
 0.0068872154     2     6     5     5
 -0.1874466543     2     6     6     2
 -0.0203359592     2     6     6     4
 -0.1759018012     3     1     1     3
 0.0320635012     3     1     1     5
 -0.0496720624     3     1     2     2
 0.0130618048     3     1     2     4
 -0.0163038129     3     1     2     6
 -0.0324997327     3     1     4     2
 -0.0105724082     3     1     4     4
 0.0159434340     3     1     4     6
 0.0319032349     3     1     5     3
 -0.0016013071     3     1     5     5
 0.0054748619     3     1     6     2
 0.0355537541     3     1     6     4
 -0.0220195325     3     1     6     6
 0.0455615667     3     2     1     4
 -0.0216777330     3     2     1     6
 0.0496720624     3     2     2     1
 -0.1430066537     3     2     2     3
 0.0074489138     3     2     2     5
 0.0324997327     3     2     4     1
 -0.0567709565     3     2     4     3
 -0.0304364844     3     2     4     5
 -0.0554766662     3     2     5     4
 -0.0333667020     3     2     5     6
 -0.0054748619     3     2     6     1
 0.0042866377     3     2     6     3
 -0.0508250448     3     2     6     5
 0.1759018012     3     3     1     1
 -0.0319032349     3     3     1     5
 0.1430066537     3     3     2     2
 0.0567709565     3     3     2     4
 -0.0042866377     3     3     2     6
 0.0567709565     3     3     4     2
 0.1766765364     3     3     4     4
 -0.0158509010     3     3     4     6
 -0.0319032349     3     3     5     1
 0.1734480137     3     3     5     5
 -0.0042866377     3     3     6     2
 -0.0158509010     3     3     6     4
 0.1871917159     3     3     6     6
 -0.0455615667     3     4     1     2
 -0.0228303715     3     4     1     6
 -0.0130618048     3     4     2     1
 -0.0567709565     3     4     2     3
 0.0284496981     3     4     2     5
 0.0105724082     3     4     4     1
 -0.1766765364     3     4     4     3
 0.0614537509     3     4     4     5
 0.0554766662     3     4     5     2
 0.0512481646     3     4     5     6
 -0.0355537541     3     4     6     1
 0.0158509010     3     4     6     3
 0.0089493904     3     4     6     5
 -0.0320635012     3     5     1     1
 0.0319032349     3     5     1     3
 -0.0074489138     3     5     2     2
 -0.0284496981     3     5     2     4
 0.0182119659     3     5     2     6
 0.0304364844     3     5     4     2
 -0.0614537509     3     5     4     4
 0.0423426910     3     5     4     6
 0.0016013071     3     5     5     1
 -0.1734480137     3     5     5     3
 0.0508250448     3     5     6     2
 -0.0089493904     3     5     6     4
 -0.0106526640     3     5     6     6
 0.0216777330     3     6     1     2
 0.0228303715     3     6     1     4
 0.0163038129     3     6     2     1
 0.0042866377     3     6     2     3
 -0.0182119659     3     6     2     5
 -0.0159434340     3     6     4     1
 0.0158509010     3     6     4     3
 -0.0423426910     3     6     4     5
 0.0333667020     3     6     5     2
 -0.0512481646     3     6     5     4
 0.0220195325     3     6     6     1
 -0.1871917159     3     6     6     3
 0.0106526640     3     6     6     5
 -0.0154743263     4     1     1     2
 -0.1908331044     4     1     1     4
 0.0392418057     4     1     1     6
 0.0455615667     4     1     2     3
 0.0362249268     4     1     2     5
 0.0324997327     4     1     3     2
 0.0105724082     4     1     3     4
 -0.0159434340     4     1     3     6
 -0.0148649335     4     1     5     2
 -0.0017174388     4     1     5     4
 -0.0100310757     4     1     5     6
 0.0228303715     4     1     6     3
 -0.0112899431     4     1     6     5
 0.0154743263     4     2     1     1
 0.0130618048     4     2     1     3
 0.0504700293     4     2     1     5
 -0.1732060322     4     2     2     4
 0.0077026204     4     2     2     6
 -0.0324997327     4     2     3     1
 0.0567709565     4     2     3     3
 0.0304364844     4     2     3     5
 0.0148649335     4     2     5     1
 -0.0284496981     4     2     5     3
 0.0042034811     4     2     5     5
 -0.0364847881     4     2     6     4
 0.0203359592     4     2     6     6
 -0.0130618048     4     3     1     2
 0.0105724082     4     3     1     4
 -0.0355537541     4     3     1     6
 -0.0455615667     4     3     2     1
 0.0554766662     4     3     2     5
 -0.0567709565     4     3     3     2
 -0.1766765364     4     3     3     4
 0.0158509010     4     3     3     6
 0.0284496981     4     3     5     2
 0.0614537509     4     3     5     4
 0.0089493904     4     3     5     6
 -0.0228303715     4     3     6     1
 0.0512481646     4     3     6     5
 0.1908331044     4     4     1     1
 -0.0105724082     4     4     1     3
 0.0017174388     4     4     1     5
 0.1732060322     4     4     2     2
 0.0364847881     4     4     2     6
 -0.0105724082     4     4     3     1
 0.1766765364     4     4     3     3
 -0.0614537509     4     4     3     5
 0.0017174388     4     4     5     1
 -0.0614537509     4     4     5     3
 0.1419903109     4     4     5     5
 0.0364847881     4     4     6     2
 0.1704737911     4     4     6     6
 -0.0504700293     4     5     1     2
 -0.0017174388     4     5     1     4
 0.0011220826     4     5     1     6
 -0.0362249268     4     5     2     1
 -0.0554766662     4     5     2     3
 -0.0304364844     4     5     3     2
 0.0614537509     4     5     3     4
 -0.0423426910     4     5     3     6
 -0.0042034811     4     5     5     2
 -0.1419903109     4     5     5     4
 0.0586984713     4     5     5     6
 0.0112899431     4     5     6     1
 -0.0512481646     4     5     6     3
 -0.0392418057     4     6     1     1
 0.0355537541     4     6     1     3
 -0.0011220826     4     6     1     5
 -0.0077026204     4     6     2     2
 -0.0364847881     4     6     2     4
 0.0159434340     4     6     3     1
 -0.0158509010     4     6     3     3
 0.0423426910     4     6     3     5
 0.0100310757     4     6     5     1
 -0.0089493904     4     6     5     3