&FCI NORB= 15,NELEC= 10,MS2=0,
 ORBSYM=1,1,1,1,1,1,1,1,1,1,1,1,1,1,1
 ISYM=1,
&END
 0.9848073792     1     1     2     2
 0.0667294118     1     1     2     4
 0.0886156656     1     1     2     6
 0.0537416211     1     1     2     8
 0.1051274785     1     1     2    11
 0.0350755648     1     1     2    13
 -0.1086141980     1     1     2    15
 0.8715084728     1     1     3     3
 -0.0935699814     1     1     3     7
 -0.0474964940     1     1     3    10
 0.1965751550     1     1     3    12
 0.0667294118     1     1     4     2
 0.9501250459     1     1     4     4
 -0.0506031778     1     1     4     6
 0.1033164290     1     1     4     8
 -0.1403274338     1     1     4    11
 -0.0270367079     1     1     4    13
 -0.0467551422     1     1     4    15
 0.9942581355     1     1     5     5
 -0.1769800211     1     1     5     9
 0.0886156656     1     1     6     2
 -0.0506031778     1     1     6     4
 0.2480541198     1     1     6     6
 0.0195080355     1     1     6     8
 0.0963136867     1     1     6    11
 0.0297791962     1     1     6    13
 -0.0597282924     1     1     6    15
 -0.0935699814     1     1     7     3
 0.2102116856     1     1     7     7
 0.0000000002     1     1     7     8
 0.0242849258     1     1     7    10
 0.0000000001     1     1     7    11
 -0.1044640647     1     1     7    12
 0.0000000007     1     1     7    15
 0.0537416211     1     1     8     2
 0.1033164290     1     1     8     4
 0.0195080355     1     1     8     6
 0.0000000002     1     1     8     7
 0.2758567293     1     1     8     8
 -0.0000000001     1     1     8    10
 -0.0157494647     1     1     8    11
 0.0000000002     1     1     8    12
 -0.0122226973     1     1     8    13
 -0.0415490597     1     1     8    15
 -0.1769800211     1     1     9     5
 0.3212987650     1     1     9     9
 -0.0474964940     1     1    10     3
 0.0242849258     1     1    10     7
 -0.0000000001     1     1    10     8
 0.2767969719     1     1    10    10
 -0.0507189712     1     1    10    12
 -0.0000000004     1     1    10    15
 0.1051274785     1     1    11     2
 -0.1403274338     1     1    11     4
 0.0963136867     1     1    11     6
 0.0000000001     1     1    11     7
 -0.0157494647     1     1    11     8
 0.3623309309     1     1    11    11
 0.0178513610     1     1    11    13
 -0.0185791832     1     1    11    15
 0.1965751550     1     1    12     3
 -0.1044640647     1     1    12     7
 0.0000000002     1     1    12     8
 -0.0507189712     1     1    12    10
 0.3842661568     1     1    12    12
 0.0000000006     1     1    12    15
 0.0350755648     1     1    13     2
 -0.0270367079     1     1    13     4
 0.0297791962     1     1    13     6
 -0.0122226973     1     1    13     8
 0.0178513610     1     1    13    11
 -0.0000000001     1     1    13    12
 0.2983442508     1     1    13    13
 -0.0074838638     1     1    13    15
 0.2999797359     1     1    14    14
 -0.1086141980     1     1    15     2
 -0.0467551422     1     1    15     4
 -0.0597282924     1     1    15     6
 0.0000000007     1     1    15     7
 -0.0415490597     1     1    15     8
 -0.0000000004     1     1    15    10
 -0.0185791832     1     1    15    11
 0.0000000006     1     1    15    12
 -0.0074838638     1     1    15    13
 0.3261244126     1     1    15    15
 -0.9848073792     1     2     2     1
 -0.0070671325     1     2     2     4
 0.0008737688     1     2     2     6
 -0.0017289560     1     2     2     8
 0.0028594261     1     2     2    11
 0.0007238493     1     2     2    13
 0.0006514814     1     2     2    15
 0.0312671668     1     2     3     3
 -0.0067235401     1     2     3     7
 -0.0049421898     1     2     3    10
 0.0168401470     1     2     3    12
 -0.0667294118     1     2     4     1
 0.0360872857     1     2     4     4
 -0.0046123014     1     2     4     6
 0.0063156414     1     2     4     8
 -0.0124033321     1     2     4    11
 -0.0031321839     1     2     4    13
 -0.0020585616     1     2     4    15
 0.0407742694     1     2     5     5
 -0.0130049302     1     2     5     9
 -0.0886156656     1     2     6     1
 -0.0043728768     1     2     6     4
 0.0007131355     1     2     6     6
 -0.0007874866     1     2     6     8
 0.0020162930     1     2     6    11
 0.0004785122     1     2     6    13
 0.0001197625     1     2     6    15
 -0.0049432642     1     2     7     3
 0.0013681712     1     2     7     7
 -0.0000000001     1     2     7     8
 0.0009138156     1     2     7    10
 -0.0035924201     1     2     7    12
 -0.0000000002     1     2     7    15
 -0.0537416211     1     2     8     1
 0.0044678020     1     2     8     4
 -0.0005034656     1     2     8     6
 -0.0000000001     1     2     8     7
 0.0014895954     1     2     8     8
 -0.0020898316     1     2     8    11
 -0.0002617800     1     2     8    13
 -0.0006274581     1     2     8    15
 -0.0099704535     1     2     9     5
 0.0044809181     1     2     9     9
 -0.0033639552     1     2    10     3
 0.0008207356     1     2    10     7
 0.0007892841     1     2    10    10
 -0.0021285654     1     2    10    12
 0.0000000001     1     2    10    15
 -0.1051274785     1     2    11     1
 -0.0103501182     1     2    11     4
 0.0017233211     1     2    11     6
 -0.0025042116     1     2    11     8
 0.0047300493     1     2    11    11
 0.0010095696     1     2    11    13
 0.0007195686     1     2    11    15
 0.0116171182     1     2    12     3
 -0.0033592343     1     2    12     7
 -0.0021959711     1     2    12    10
 0.0082423270     1     2    12    12
 -0.0000000001     1     2    12    15
 -0.0350755648     1     2    13     1
 -0.0023202319     1     2    13     4
 0.0003519010     1     2    13     6
 -0.0003034520     1     2    13     8
 0.0008739486     1     2    13    11
 0.0000770922     1     2    13    13
 0.0000434183     1     2    13    15
 -0.0001880544     1     2    14    14
 0.1086141980     1     2    15     1
 -0.0005907384     1     2    15     4
 -0.0000991306     1     2    15     6
 -0.0000000002     1     2    15     7
 -0.0003883445     1     2    15     8
 0.0000000001     1     2    15    10
 0.0001677205     1     2    15    11
 -0.0000000002     1     2    15    12
 -0.0000800219     1     2    15    13
 0.0003845373     1     2    15    15
 -0.0012441009     1     3     2     7
 -0.0012407935     1     3     2    10
 0.0040065424     1     3     2    12
 -0.8715084728     1     3     3     1
 -0.0312671668     1     3     3     2
 -0.0105883675     1     3     3     4
 -0.0030074828     1     3     3     6
 -0.0035933046     1     3     3     8
 -0.0011677472     1     3     3    11
 -0.0029515157     1     3     3    13
 0.0064663865     1     3     3    15
 0.0004891624     1     3     4     7
 0.0022032869     1     3     4    10
 -0.0015246578     1     3     4    12
 -0.0022076042     1     3     5    14
 0.0012397354     1     3     6     7
 -0.0000926362     1     3     6    10
 -0.0011826759     1     3     6    12
 0.0935699814     1     3     7     1
 0.0049432642     1     3     7     2
 0.0017340192     1     3     7     4
 0.0020155505     1     3     7     6
 0.0012629537     1     3     7     8
 0.0013521641     1     3     7    11
 0.0000067808     1     3     7    13
 -0.0013544847     1     3     7    15
 0.0006706390     1     3     8     7
 -0.0007643853     1     3     8    10
 -0.0017356985     1     3     8    12
 -0.0008047537     1     3     9    14
 0.0474964940     1     3    10     1
 0.0033639552     1     3    10     2
 0.0011078932     1     3    10     4
 0.0007835081     1     3    10     6
 -0.0007274613     1     3    10     8
 0.0019760615     1     3    10    11
 0.0007029626     1     3    10    13
 -0.0008578414     1     3    10    15
 0.0007892661     1     3    11     7
 0.0007385469     1     3    11    10
 -0.0021321743     1     3    11    12
 -0.1965751550     1     3    12     1
 -0.0116171182     1     3    12     2
 -0.0040150364     1     3    12     4
 -0.0032439468     1     3    12     6
 -0.0031001692     1     3    12     8
 -0.0038496294     1     3    12    11
 -0.0008205431     1     3    12    13
 0.0043583088     1     3    12    15
 -0.0007412600     1     3    13     7
 -0.0000033851     1     3    13    10
 0.0010984976     1     3    13    12
 0.0000785459     1     3    14     5
 -0.0016571442     1     3    14     9
 -0.0000029530     1     3    15     7
 0.0000153673     1     3    15    10
 0.0000000001     1     3    15    11
 0.0009951270     1     3    15    12
 -0.0000000001     1     3    15    15
 -0.0667294118     1     4     2     1
 0.0070671325     1     4     2     2
 0.0002075863     1     4     2     6
 0.0013346778     1     4     2     8
 -0.0010070510     1     4     2    11
 -0.0005431450     1     4     2    13
 -0.0013612787     1     4     2    15
 0.0105883675     1     4     3     3
 -0.0013706946     1     4     3     7
 0.0010587577     1     4     3    10
 0.0027751608     1     4     3    12
 -0.9501250459     1     4     4     1
 -0.0360872857     1     4     4     2
 -0.0057962050     1     4     4     6
 -0.0026405154     1     4     4     8
 -0.0083621274     1     4     4    11
 -0.0003513601     1     4     4    13
 0.0076083674     1     4     4    15
 0.0136212746     1     4     5     5
 -0.0041688996     1     4     5     9
 0.0506031778     1     4     6     1
 0.0043728768     1     4     6     2
 0.0020432750     1     4     6     6
 -0.0005358227     1     4     6     8
 0.0026112101     1     4     6    11
 0.0006846156     1     4     6    13
 -0.0010931017     1     4     6    15
 -0.0017340192     1     4     7     3
 0.0010113631     1     4     7     7
 -0.0000000001     1     4     7     8
 0.0008506772     1     4     7    10
 -0.0012392780     1     4     7    12
 -0.0000000004     1     4     7    15
 -0.1033164290     1     4     8     1
 -0.0044678020     1     4     8     2
 -0.0018974054     1     4     8     6
 -0.0000000001     1     4     8     7
 -0.0017019608     1     4     8     8
 0.0000000001     1     4     8    10
 -0.0008287485     1     4     8    11
 -0.0000000001     1     4     8    12
 -0.0014660261     1     4     8    13
 0.0014751339     1     4     8    15
 -0.0034869394     1     4     9     5
 0.0014782503     1     4     9     9
 -0.0011078932     1     4    10     3
 0.0012941656     1     4    10     7
 0.0000000001     1     4    10     8
 -0.0000395207     1     4    10    10
 -0.0026801338     1     4    10    12
 0.0000000003     1     4    10    15
 0.1403274338     1     4    11     1
 0.0103501182     1     4    11     2
 0.0035468821     1     4    11     6
 0.0015615754     1     4    11     8
 0.0052001510     1     4    11    11
 0.0017687315     1     4    11    13
 -0.0032734275     1     4    11    15
 0.0040150364     1     4    12     3
 -0.0013189855     1     4    12     7
 -0.0000000001     1     4    12     8
 -0.0016451466     1     4    12    10
 0.0034770964     1     4    12    12
 -0.0000000004     1     4    12    15
 0.0270367079     1     4    13     1
 0.0023202319     1     4    13     2
 0.0011784671     1     4    13     6
 -0.0012203547     1     4    13     8
 0.0024531642     1     4    13    11
 0.0017461373     1     4    13    13
 -0.0001713469     1     4    13    15
 0.0015135642     1     4    14    14
 0.0467551422     1     4    15     1
 0.0005907384     1     4    15     2
 0.0002287165     1     4    15     6
 -0.0000000004     1     4    15     7
 0.0002699510     1     4    15     8
 0.0000000003     1     4    15    10
 -0.0001276606     1     4    15    11
 -0.0000000004     1     4    15    12
 0.0005061057     1     4    15    13
 0.0000990420     1     4    15    15
 -0.0019679555     1     5     2     9
 -0.0024273791     1     5     3    14
 -0.0004158806     1     5     4     9
 -0.9942581355     1     5     5     1
 -0.0407742694     1     5     5     2
 -0.0136212746     1     5     5     4
 -0.0053356454     1     5     5     6
 -0.0064375150     1     5     5     8
 -0.0068497721     1     5     5    11
 -0.0020245783     1     5     5    13
 0.0068699663     1     5     5    15
 0.0017702121     1     5     6     9
 -0.0005184542     1     5     7    14
 0.0001949743     1     5     8     9
 0.1769800211     1     5     9     1
 0.0099704535     1     5     9     2
 0.0034869394     1     5     9     4
 0.0035380914     1     5     9     6
 0.0022623875     1     5     9     8
 0.0019187721     1     5     9    11
 0.0009088335     1     5     9    13
 -0.0049617291     1     5     9    15
 -0.0000515040     1     5    10    14
 -0.0004425830     1     5    11     9
 0.0006549938     1     5    12    14
 0.0002365177     1     5    13     9
 -0.0000785459     1     5    14     3
 -0.0010411300     1     5    14     7
 -0.0004045947     1     5    14    10
 0.0019364785     1     5    14    12
 -0.0028274585     1     5    15     9
 -0.0886156656     1     6     2     1
 -0.0008737688     1     6     2     2
 -0.0002075863     1     6     2     4
 -0.0002927537     1     6     2     8
 0.0003115212     1     6     2    11
 0.0001319299     1     6     2    13
 0.0002022290     1     6     2    15
 0.0030074828     1     6     3     3
 -0.0007618377     1     6     3     7
 -0.0008809515     1     6     3    10
 0.0020559361     1     6     3    12
 0.0506031778     1     6     4     1
 0.0046123014     1     6     4     2
 0.0057962050     1     6     4     4
 0.0013563496     1     6     4     8
 -0.0009478846     1     6     4    11
 -0.0004933412     1     6     4    13
 -0.0013149005     1     6     4    15
 0.0053356454     1     6     5     5
 -0.0017355394     1     6     5     9
 -0.2480541198     1     6     6     1
 -0.0007131355     1     6     6     2
 -0.0020432750     1     6     6     4
 -0.0002989811     1     6     6     8
 0.0004154258     1     6     6    11
 0.0000843393     1     6     6    13
 0.0002547143     1     6     6    15
 -0.0020155505     1     6     7     3
 0.0003949083     1     6     7     7
 0.0002423567     1     6     7    10
 -0.0011671767     1     6     7    12
 -0.0195080355     1     6     8     1
 0.0005034656     1     6     8     2
 0.0018974054     1     6     8     4
 0.0006615594     1     6     8     8
 -0.0006602238     1     6     8    11
 0.0000581772     1     6     8    13
 -0.0003401665     1     6     8    15
 -0.0035380914     1     6     9     5
 0.0012832495     1     6     9     9
 -0.0007835081     1     6    10     3
 0.0000338851     1     6    10     7
 0.0001710018     1     6    10    10
 -0.0001637552     1     6    10    12
 -0.0000000001     1     6    10    15
 -0.0963136867     1     6    11     1
 -0.0017233211     1     6    11     2
 -0.0035468821     1     6    11     4
 -0.0009548253     1     6    11     8
 0.0006333508     1     6    11    11
 0.0000574742     1     6    11    13
 0.0006894017     1     6    11    15
 0.0032439468     1     6    12     3
 -0.0007597223     1     6    12     7
 -0.0004018423     1     6    12    10
 0.0018332055     1     6    12    12
 -0.0297791962     1     6    13     1
 -0.0003519010     1     6    13     2
 -0.0011784671     1     6    13     4
 -0.0000271727     1     6    13     8
 0.0000879945     1     6    13    11
 -0.0001764210     1     6    13    13
 0.0000748214     1     6    13    15
 -0.0002522410     1     6    14    14
 0.0597282924     1     6    15     1
 0.0000991306     1     6    15     2
 -0.0002287165     1     6    15     4
 0.0000000001     1     6    15     7
 -0.0001097657     1     6    15     8
 -0.0000000001     1     6    15    10
 0.0001226811     1     6    15    11
 0.0000000001     1     6    15    12
 -0.0000606426     1     6    15    13
 0.0000121406     1     6    15    15
 0.0012441009     1     7     2     3
 0.0000908853     1     7     2    10
 -0.0002207939     1     7     2    12
 0.0935699814     1     7     3     1
 0.0067235401     1     7     3     2
 0.0013706946     1     7     3     4
 0.0007618377     1     7     3     6
 0.0005981771     1     7     3     8
 0.0005322359     1     7     3    11
 0.0007412220     1     7     3    13
 -0.0013410720     1     7     3    15
 -0.0004891624     1     7     4     3
 -0.0004454218     1     7     4    10
 0.0000823503     1     7     4    12
 0.0005163004     1     7     5    14
 -0.0012397354     1     7     6     3
 0.0002080997     1     7     6    10
 -0.0004059948     1     7     6    12
 -0.0000000001     1     7     6    15
 -0.2102116856     1     7     7     1
 -0.0013681712     1     7     7     2
 -0.0010113631     1     7     7     4
 -0.0003949083     1     7     7     6
 -0.0004048452     1     7     7     8
 -0.0001278333     1     7     7    11
 0.0000377141     1     7     7    13
 0.0003646983     1     7     7    15
 -0.0000000002     1     7     8     1
 0.0000000001     1     7     8     2
 -0.0006706390     1     7     8     3
 0.0000000001     1     7     8     4
 0.0002758640     1     7     8    10
 0.0000211515     1     7     8    12
 -0.0000000002     1     7     8    15
 0.0001818876     1     7     9    14
 -0.0242849258     1     7    10     1
 -0.0008207356     1     7    10     2
 -0.0012941656     1     7    10     4
 -0.0000338851     1     7    10     6
 -0.0000294024     1     7    10     8
 -0.0000698899     1     7    10    11
 -0.0000753504     1     7    10    13
 0.0002510824     1     7    10    15
 -0.0000000001     1     7    11     1
 -0.0007892661     1     7    11     3
 -0.0000461840     1     7    11    10
 0.0000471857     1     7    11    12
 -0.0000000001     1     7    11    15
 0.1044640647     1     7    12     1
 0.0033592343     1     7    12     2
 0.0013189855     1     7    12     4
 0.0007597223     1     7    12     6
 0.0007955704     1     7    12     8
 0.0008515597     1     7    12    11
 0.0001902568     1     7    12    13
 -0.0010870094     1     7    12    15
 0.0007412600     1     7    13     3
 -0.0001107494     1     7    13    10
 0.0001560996     1     7    13    12
 0.0010411300     1     7    14     5
 0.0000076236     1     7    14     9
 -0.0000000007     1     7    15     1
 0.0000000002     1     7    15     2
 0.0000029530     1     7    15     3
 0.0000000004     1     7    15     4
 -0.0000000001     1     7    15     6
 0.0000000001     1     7    15     8
 -0.0000047518     1     7    15    10
 -0.0002176393     1     7    15    12
 0.0000000001     1     7    15    13
 -0.0000000008     1     7    15    15
 -0.0537416211     1     8     2     1
 0.0017289560     1     8     2     2
 -0.0013346778     1     8     2     4
 0.0002927537     1     8     2     6
 0.0004507569     1     8     2    11
 0.0000563237     1     8     2    13
 -0.0002692923     1     8     2    15
 0.0035933046     1     8     3     3
 -0.0005981771     1     8     3     7
 -0.0000528868     1     8     3    10
 0.0014186114     1     8     3    12
 -0.1033164290     1     8     4     1
 -0.0063156414     1     8     4     2
 0.0026405154     1     8     4     4
 -0.0013563496     1     8     4     6
 -0.0024015612     1     8     4    11
 -0.0002393968     1     8     4    13
 0.0011904762     1     8     4    15
 0.0064375150     1     8     5     5
 -0.0020869317     1     8     5     9
 -0.0195080355     1     8     6     1
 0.0007874866     1     8     6     2
 0.0005358227     1     8     6     4
 0.0002989811     1     8     6     6
 0.0002957077     1     8     6    11
 0.0000857248     1     8     6    13
 -0.0002300899     1     8     6    15
 -0.0000000002     1     8     7     1
 0.0000000001     1     8     7     2
 -0.0012629537     1     8     7     3
 0.0000000001     1     8     7     4
 0.0004048452     1     8     7     7
 0.0003054475     1     8     7    10
 -0.0007756683     1     8     7    12
 -0.0000000003     1     8     7    15
 -0.2758567293     1     8     8     1
 -0.0014895954     1     8     8     2
 0.0017019608     1     8     8     4
 -0.0006615594     1     8     8     6
 -0.0009186657     1     8     8    11
 -0.0004442289     1     8     8    13
 0.0002459380     1     8     8    15
 -0.0022623875     1     8     9     5
 0.0008536111     1     8     9     9
 0.0000000001     1     8    10     1
 0.0007274613     1     8    10     3
 -0.0000000001     1     8    10     4
 0.0000294024     1     8    10     7
 -0.0001494285     1     8    10    10
 0.0000093359     1     8    10    12
 0.0000000002     1     8    10    15
 0.0157494647     1     8    11     1
 0.0025042116     1     8    11     2
 -0.0015615754     1     8    11     4
 0.0009548253     1     8    11     6
 0.0016763253     1     8    11    11
 0.0004959636     1     8    11    13
 -0.0005933647     1     8    11    15
 -0.0000000002     1     8    12     1
 0.0031001692     1     8    12     3
 0.0000000001     1     8    12     4
 -0.0007955704     1     8    12     7
 -0.0006762091     1     8    12    10
 0.0019972584     1     8    12    12
 -0.0000000003     1     8    12    15
 0.0122226973     1     8    13     1
 0.0003034520     1     8    13     2
 0.0012203547     1     8    13     4
 0.0000271727     1     8    13     6
 -0.0000211436     1     8    13    11
 0.0001984612     1     8    13    13
 -0.0000796102     1     8    13    15
 0.0002639199     1     8    14    14
 0.0415490597     1     8    15     1
 0.0003883445     1     8    15     2
 -0.0002699510     1     8    15     4
 0.0001097657     1     8    15     6
 -0.0000000001     1     8    15     7
 0.0000000001     1     8    15    10
 0.0001285366     1     8    15    11
 -0.0000000001     1     8    15    12
 0.0001266709     1     8    15    13
 0.0000038569     1     8    15    15
 0.0019679555     1     9     2     5
 0.0008563469     1     9     3    14
 0.0004158806     1     9     4     5
 0.1769800211     1     9     5     1
 0.0130049302     1     9     5     2
 0.0041688996     1     9     5     4
 0.0017355394     1     9     5     6
 0.0020869317     1     9     5     8
 0.0022934680     1     9     5    11
 0.0006541820     1     9     5    13
 -0.0021465954     1     9     5    15
 -0.0017702121     1     9     6     5
 0.0001744193     1     9     7    14
 -0.0001949743     1     9     8     5
 -0.3212987650     1     9     9     1
 -0.0044809181     1     9     9     2
 -0.0014782503     1     9     9     4
 -0.0012832495     1     9     9     6
 -0.0008536111     1     9     9     8
 -0.0007481686     1     9     9    11
 -0.0003413869     1     9     9    13
 0.0018233383     1     9     9    15
 0.0000112381     1     9    10    14
 0.0004425830     1     9    11     5
 -0.0002196329     1     9    12    14
 -0.0002365177     1     9    13     5
 0.0016571442     1     9    14     3
 -0.0000076236     1     9    14     7
 -0.0001059006     1     9    14    10
 0.0002161680     1     9    14    12
 0.0028274585     1     9    15     5
 0.0012407935     1    10     2     3
 -0.0000908853     1    10     2     7
 0.0000719979     1    10     2    12
 0.0474964940     1    10     3     1
 0.0049421898     1    10     3     2
 -0.0010587577     1    10     3     4
 0.0008809515     1    10     3     6
 0.0000528868     1    10     3     8
 0.0012413987     1    10     3    11
 0.0006996580     1    10     3    13
 -0.0008902335     1    10     3    15
 -0.0022032869     1    10     4     3
 0.0004454218     1    10     4     7
 -0.0010346681     1    10     4    12
 0.0003342884     1    10     5    14
 0.0000926362     1    10     6     3
 -0.0002080997     1    10     6     7
 0.0002378298     1    10     6    12
 -0.0242849258     1    10     7     1
 -0.0009138156     1    10     7     2
 -0.0008506772     1    10     7     4
 -0.0002423567     1    10     7     6
 -0.0003054475     1    10     7     8
 -0.0000242548     1    10     7    11
 0.0000347467     1    10     7    13
 0.0002563515     1    10     7    15
 0.0000000001     1    10     8     1
 0.0007643853     1    10     8     3
 -0.0000000001     1    10     8     4
 -0.0002758640     1    10     8     7
 0.0006850033     1    10     8    12
 0.0000000001     1    10     8    15
 0.0001160326     1    10     9    14
 -0.2767969719     1    10    10     1
 -0.0007892841     1    10    10     2
 0.0000395207     1    10    10     4
 -0.0001710018     1    10    10     6
 0.0001494285     1    10    10     8
 -0.0004218512     1    10    10    11
 -0.0001322904     1    10    10    13
 0.0001392100     1    10    10    15
 -0.0007385469     1    10    11     3
 0.0000461840     1    10    11     7
 -0.0000763747     1    10    11    12
 0.0507189712     1    10    12     1
 0.0021959711     1    10    12     2
 0.0016451466     1    10    12     4
 0.0004018423     1    10    12     6
 0.0006762091     1    10    12     8
 0.0002879757     1    10    12    11
 0.0000663975     1    10    12    13
 -0.0007681120     1    10    12    15
 0.0000033851     1    10    13     3
 0.0001107494     1    10    13     7
 -0.0001621360     1    10    13    12
 0.0004045947     1    10    14     5
 0.0001059006     1    10    14     9
 0.0000000004     1    10    15     1
 -0.0000000001     1    10    15     2
 -0.0000153673     1    10    15     3
 -0.0000000003     1    10    15     4
 0.0000000001     1    10    15     6
 0.0000047518     1    10    15     7
 -0.0000000001     1    10    15     8
 -0.0000000001     1    10    15    11
 -0.0001605071     1    10    15    12
 0.0000000005     1    10    15    15
 -0.1051274785     1    11     2     1
 -0.0028594261     1    11     2     2
 0.0010070510     1    11     2     4
 -0.0003115212     1    11     2     6
 -0.0004507569     1    11     2     8
 0.0001316547     1    11     2    13
 0.0005713732     1    11     2    15
 0.0011677472     1    11     3     3
 -0.0005322359     1    11     3     7
 -0.0012413987     1    11     3    10
 0.0016803999     1    11     3    12
 0.1403274338     1    11     4     1
 0.0124033321     1    11     4     2
 0.0083621274     1    11     4     4
 0.0009478846     1    11     4     6
 0.0024015612     1    11     4     8
 -0.0006742499     1    11     4    13
 -0.0031567446     1    11     4    15
 0.0068497721     1    11     5     5
 -0.0022934680     1    11     5     9
 -0.0963136867     1    11     6     1
 -0.0020162930     1    11     6     2
 -0.0026112101     1    11     6     4
 -0.0004154258     1    11     6     6
 -0.0002957077     1    11     6     8
 -0.0000308307     1    11     6    13
 0.0005682714     1    11     6    15
 -0.0000000001     1    11     7     1
 -0.0013521641     1    11     7     3
 0.0001278333     1    11     7     7
 0.0000242548     1    11     7    10
 -0.0008059011     1    11     7    12
 -0.0000000001     1    11     7    15
 0.0157494647     1    11     8     1
 0.0020898316     1    11     8     2
 0.0008287485     1    11     8     4
 0.0006602238     1    11     8     6
 0.0009186657     1    11     8     8
 0.0005163359     1    11     8    13
 -0.0007228145     1    11     8    15
 -0.0019187721     1    11     9     5
 0.0007481686     1    11     9     9
 -0.0019760615     1    11    10     3
 0.0000698899     1    11    10     7
 0.0004218512     1    11    10    10
 -0.0003640931     1    11    10    12
 0.0000000001     1    11    10    15
 -0.3623309309     1    11    11     1
 -0.0047300493     1    11    11     2
 -0.0052001510     1    11    11     4
 -0.0006333508     1    11    11     6
 -0.0016763253     1    11    11     8
 -0.0002267203     1    11    11    13
 0.0016095438     1    11    11    15
 0.0038496294     1    11    12     3
 -0.0008515597     1    11    12     7
 -0.0002879757     1    11    12    10
 0.0020031296     1    11    12    12
 -0.0000000001     1    11    12    15
 -0.0178513610     1    11    13     1
 -0.0008739486     1    11    13     2
 -0.0024531642     1    11    13     4
 -0.0000879945     1    11    13     6
 0.0000211436     1    11    13     8
 -0.0004738500     1    11    13    13
 0.0001780966     1    11    13    15
 -0.0006103693     1    11    14    14
 0.0185791832     1    11    15     1
 -0.0001677205     1    11    15     2
 -0.0000000001     1    11    15     3
 0.0001276606     1    11    15     4
 -0.0001226811     1    11    15     6
 -0.0001285366     1    11    15     8
 0.0000000001     1    11    15    10
 -0.0000000001     1    11    15    12
 -0.0002187192     1    11    15    13
 0.0000036059     1    11    15    15
 -0.0040065424     1    12     2     3
 0.0002207939     1    12     2     7
 -0.0000719979     1    12     2    10
 -0.1965751550     1    12     3     1
 -0.0168401470     1    12     3     2
 -0.0027751608     1    12     3     4
 -0.0020559361     1    12     3     6
 -0.0014186114     1    12     3     8
 -0.0016803999     1    12     3    11
 -0.0019052846     1    12     3    13
 0.0033990808     1    12     3    15
 0.0015246578     1    12     4     3
 -0.0000823503     1    12     4     7
 0.0010346681     1    12     4    10
 -0.0012528830     1    12     5    14
 0.0011826759     1    12     6     3
 0.0004059948     1    12     6     7
 -0.0002378298     1    12     6    10
 -0.0000000001     1    12     6    15
 0.1044640647     1    12     7     1
 0.0035924201     1    12     7     2
 0.0012392780     1    12     7     4
 0.0011671767     1    12     7     6
 0.0007756683     1    12     7     8
 0.0008059011     1    12     7    11
 0.0000352828     1    12     7    13
 -0.0008717505     1    12     7    15
 -0.0000000002     1    12     8     1
 0.0017356985     1    12     8     3
 0.0000000001     1    12     8     4
 -0.0000211515     1    12     8     7
 -0.0006850033     1    12     8    10
 -0.0000000002     1    12     8    15
 -0.0004341889     1    12     9    14
 0.0507189712     1    12    10     1
 0.0021285654     1    12    10     2
 0.0026801338     1    12    10     4
 0.0001637552     1    12    10     6
 -0.0000093359     1    12    10     8