&FCI NORB= 15,NELEC= 10,MS2=0,
 ORBSYM=1,1,1,1,1,1,1,1,1,1,1,1,1,1,1
 ISYM=1,
&END
 0.9839006329     1     1     2     2
 0.0672758236     1     1     2     4
 -0.1289400450     1     1     2     6
 0.0354718539     1     1     2     9
 -0.1110162947     1     1     2    10
 -0.0746898278     1     1     2    12
 0.8692582176     1     1     3     3
 0.1494857163     1     1     3     7
 0.0792853207     1     1     3     8
 0.2342252138     1     1     3    13
 0.0672758236     1     1     4     2
 0.9509578661     1     1     4     4
 0.0688068631     1     1     4     6
 0.1673445465     1     1     4     9
 0.1635014795     1     1     4    10
 0.0523049606     1     1     4    12
 0.9993510417     1     1     5     5
 0.2959848778     1     1     5    11
 -0.0423442542     1     1     5    15
 -0.1289400450     1     1     6     2
 0.0688068631     1     1     6     4
 0.3154680339     1     1     6     6
 0.0074133788     1     1     6     9
 0.1152650879     1     1     6    10
 0.0619615590     1     1     6    12
 0.1494857163     1     1     7     3
 0.2838270161     1     1     7     7
 0.0652209566     1     1     7     8
 0.1475130070     1     1     7    13
 0.0792853207     1     1     8     3
 0.0652209566     1     1     8     7
 0.3894572698     1     1     8     8
 0.0794180187     1     1     8    13
 0.0354718539     1     1     9     2
 0.1673445465     1     1     9     4
 0.0074133788     1     1     9     6
 0.3825733356     1     1     9     9
 0.0347633564     1     1     9    10
 0.0247498713     1     1     9    12
 -0.1110162947     1     1    10     2
 0.1635014795     1     1    10     4
 0.1152650879     1     1    10     6
 0.0347633564     1     1    10     9
 0.4569397108     1     1    10    10
 0.0436933059     1     1    10    12
 0.2959848778     1     1    11     5
 0.5396151572     1     1    11    11
 -0.0395176077     1     1    11    15
 -0.0746898278     1     1    12     2
 0.0523049606     1     1    12     4
 0.0619615590     1     1    12     6
 0.0247498713     1     1    12     9
 0.0436933059     1     1    12    10
 0.3783779359     1     1    12    12
 0.2342252138     1     1    13     3
 0.1475130070     1     1    13     7
 0.0794180187     1     1    13     8
 0.4774621554     1     1    13    13
 0.3621972835     1     1    14    14
 -0.0423442542     1     1    15     5
 -0.0395176077     1     1    15    11
 0.3656506061     1     1    15    15
 -0.9839006329     1     2     2     1
 -0.0069947557     1     2     2     4
 -0.0013764921     1     2     2     6
 -0.0029815603     1     2     2     9
 -0.0036752238     1     2     2    10
 -0.0016008331     1     2     2    12
 0.0309701463     1     2     3     3
 0.0109377307     1     2     3     7
 0.0087675438     1     2     3     8
 0.0212693971     1     2     3    13
 -0.0672758236     1     2     4     1
 0.0359844185     1     2     4     4
 0.0063940836     1     2     4     6
 0.0118512490     1     2     4     9
 0.0150964118     1     2     4    10
 0.0065443462     1     2     4    12
 0.0409837394     1     2     5     5
 0.0243388892     1     2     5    11
 -0.0045169678     1     2     5    15
 0.1289400450     1     2     6     1
 0.0061786645     1     2     6     4
 0.0013471323     1     2     6     6
 0.0021825437     1     2     6     9
 0.0032386381     1     2     6    10
 0.0013994379     1     2     6    12
 0.0081226191     1     2     7     3
 0.0034174315     1     2     7     7
 0.0026816709     1     2     7     8
 0.0068837648     1     2     7    13
 0.0058649234     1     2     8     3
 0.0023607229     1     2     8     7
 0.0020125690     1     2     8     8
 0.0043667092     1     2     8    13
 -0.0354718539     1     2     9     1
 0.0087165600     1     2     9     4
 0.0014948336     1     2     9     6
 0.0039769423     1     2     9     9
 0.0046597068     1     2     9    10
 0.0014728146     1     2     9    12
 0.1110162947     1     2    10     1
 0.0123977323     1     2    10     4
 0.0026605367     1     2    10     6
 0.0053029158     1     2    10     9
 0.0064007476     1     2    10    10
 0.0025606832     1     2    10    12
 0.0179191410     1     2    11     5
 0.0136076782     1     2    11    11
 -0.0020616448     1     2    11    15
 0.0746898278     1     2    12     1
 0.0049888464     1     2    12     4
 0.0010409086     1     2    12     6
 0.0015772121     1     2    12     9
 0.0023203913     1     2    12    10
 0.0008753592     1     2    12    12
 0.0143755731     1     2    13     3
 0.0062774718     1     2    13     7
 0.0045301832     1     2    13     8
 0.0121673170     1     2    13    13
 -0.0002585008     1     2    14    14
 -0.0027453815     1     2    15     5
 -0.0015985524     1     2    15    11
 0.0002065676     1     2    15    15
 0.0020929017     1     3     2     7
 0.0024045262     1     3     2     8
 0.0056090560     1     3     2    13
 -0.8692582176     1     3     3     1
 -0.0309701463     1     3     3     2
 -0.0105012100     1     3     3     4
 0.0041194366     1     3     3     6
 -0.0027889762     1     3     3     9
 -0.0006413256     1     3     3    10
 0.0042439178     1     3     3    12
 -0.0010182925     1     3     4     7
 -0.0040349218     1     3     4     8
 -0.0013973620     1     3     4    13
 0.0033147557     1     3     5    14
 0.0018412829     1     3     6     7
 -0.0004175370     1     3     6     8
 0.0016646577     1     3     6    13
 -0.1494857163     1     3     7     1
 -0.0081226191     1     3     7     2
 -0.0028405935     1     3     7     4
 0.0036365702     1     3     7     6
 -0.0012678517     1     3     7     9
 0.0019485621     1     3     7    10
 0.0011765266     1     3     7    12
 -0.0792853207     1     3     8     1
 -0.0058649234     1     3     8     2
 -0.0018582512     1     3     8     4
 0.0017636538     1     3     8     6
 0.0010303673     1     3     8     9
 0.0040530700     1     3     8    10
 0.0027006728     1     3     8    12
 -0.0009070915     1     3     9     7
 0.0000446193     1     3     9     8
 -0.0028583517     1     3     9    13
 0.0014315339     1     3    10     7
 0.0018387684     1     3    10     8
 0.0032766560     1     3    10    13
 -0.0008694308     1     3    11    14
 -0.0006574658     1     3    12     7
 0.0005976902     1     3    12     8
 -0.0004760443     1     3    12    13
 -0.2342252138     1     3    13     1
 -0.0143755731     1     3    13     2
 -0.0049396033     1     3    13     4
 0.0052046185     1     3    13     6
 -0.0035681943     1     3    13     9
 0.0043565244     1     3    13    10
 0.0031140842     1     3    13    12
 -0.0003796984     1     3    14     5
 -0.0032286552     1     3    14    11
 0.0026566641     1     3    14    15
 0.0022765150     1     3    15    14
 -0.0672758236     1     4     2     1
 0.0069947557     1     4     2     2
 -0.0003155023     1     4     2     6
 0.0023454280     1     4     2     9
 0.0016258154     1     4     2    10
 0.0011262550     1     4     2    12
 0.0105012100     1     4     3     3
 0.0020043911     1     4     3     7
 -0.0021022194     1     4     3     8
 0.0039063869     1     4     3    13
 -0.9509578661     1     4     4     1
 -0.0359844185     1     4     4     2
 0.0082070233     1     4     4     6
 -0.0005958855     1     4     4     9
 0.0102327388     1     4     4    10
 0.0021292746     1     4     4    12
 0.0136414637     1     4     5     5
 0.0077967939     1     4     5    11
 0.0021897679     1     4     5    15
 -0.0688068631     1     4     6     1
 -0.0061786645     1     4     6     2
 0.0032873167     1     4     6     6
 0.0014133096     1     4     6     9
 0.0035735697     1     4     6    10
 0.0014598083     1     4     6    12
 0.0028405935     1     4     7     3
 0.0020965488     1     4     7     7
 0.0009583040     1     4     7     8
 0.0024351327     1     4     7    13
 0.0018582512     1     4     8     3
 0.0021765599     1     4     8     7
 0.0012996423     1     4     8     8
 0.0052968593     1     4     8    13
 -0.1673445465     1     4     9     1
 -0.0087165600     1     4     9     2
 0.0042384126     1     4     9     6
 -0.0010105310     1     4     9     9
 0.0019013312     1     4     9    10
 0.0032205007     1     4     9    12
 -0.1635014795     1     4    10     1
 -0.0123977323     1     4    10     2
 0.0052137233     1     4    10     6
 -0.0017590258     1     4    10     9
 0.0068094857     1     4    10    10
 0.0030764398     1     4    10    12
 0.0062663356     1     4    11     5
 0.0045005763     1     4    11    11
 -0.0016028947     1     4    11    15
 -0.0523049606     1     4    12     1
 -0.0049888464     1     4    12     2
 0.0026294547     1     4    12     6
 0.0024951342     1     4    12     9
 0.0041436439     1     4    12    10
 0.0032148208     1     4    12    12
 0.0049396033     1     4    13     3
 0.0022296154     1     4    13     7
 0.0027880054     1     4    13     8
 0.0041520086     1     4    13    13
 0.0024010768     1     4    14    14
 -0.0012597965     1     4    15     5
 -0.0039447761     1     4    15    11
 0.0018847850     1     4    15    15
 0.0048536158     1     5     2    11
 -0.0015193708     1     5     2    15
 0.0037487653     1     5     3    14
 0.0010890245     1     5     4    11
 0.0035131687     1     5     4    15
 -0.9993510417     1     5     5     1
 -0.0409837394     1     5     5     2
 -0.0136414637     1     5     5     4
 0.0078216429     1     5     5     6
 -0.0074778927     1     5     5     9
 0.0081216805     1     5     5    10
 0.0061352513     1     5     5    12
 0.0021556821     1     5     6    11
 0.0000281622     1     5     6    15
 -0.0004220055     1     5     7    14
 0.0003867884     1     5     8    14
 0.0014252682     1     5     9    11
 -0.0001366744     1     5     9    15
 -0.0011925956     1     5    10    11
 -0.0003721546     1     5    10    15
 -0.2959848778     1     5    11     1
 -0.0179191410     1     5    11     2
 -0.0062663356     1     5    11     4
 0.0069925440     1     5    11     6
 -0.0029806309     1     5    11     9
 0.0040065506     1     5    11    10
 0.0033231273     1     5    11    12
 -0.0005083380     1     5    12    11
 0.0004641734     1     5    12    15
 0.0000192450     1     5    13    14
 0.0003796984     1     5    14     3
 -0.0016398867     1     5    14     7
 -0.0004998907     1     5    14     8
 -0.0023273586     1     5    14    13
 0.0423442542     1     5    15     1
 0.0027453815     1     5    15     2
 0.0012597965     1     5    15     4
 -0.0015400594     1     5    15     6
 -0.0006429897     1     5    15     9
 -0.0029097887     1     5    15    10
 -0.0008441604     1     5    15    12
 0.1289400450     1     6     2     1
 0.0013764921     1     6     2     2
 0.0003155023     1     6     2     4
 0.0006990494     1     6     2     9
 0.0006077248     1     6     2    10
 0.0003769098     1     6     2    12
 -0.0041194366     1     6     3     3
 -0.0017998178     1     6     3     7
 -0.0022158331     1     6     3     8
 -0.0035938371     1     6     3    13
 -0.0688068631     1     6     4     1
 -0.0063940836     1     6     4     2
 -0.0082070233     1     6     4     4
 -0.0028745157     1     6     4     9
 -0.0016998940     1     6     4    10
 -0.0011945762     1     6     4    12
 -0.0078216429     1     6     5     5
 -0.0048290784     1     6     5    11
 0.0015773029     1     6     5    15
 -0.3154680339     1     6     6     1
 -0.0013471323     1     6     6     2
 -0.0032873167     1     6     6     4
 -0.0008486770     1     6     6     9
 -0.0008154767     1     6     6    10
 -0.0003308430     1     6     6    12
 -0.0036365702     1     6     7     3
 -0.0011666300     1     6     7     7
 -0.0009984836     1     6     7     8
 -0.0026007675     1     6     7    13
 -0.0017636538     1     6     8     3
 -0.0003739568     1     6     8     7
 -0.0003507564     1     6     8     8
 -0.0004836589     1     6     8    13
 -0.0074133788     1     6     9     1
 -0.0014948336     1     6     9     2
 -0.0042384126     1     6     9     4
 -0.0017748499     1     6     9     9
 -0.0016893770     1     6     9    10
 -0.0001290954     1     6     9    12
 -0.1152650879     1     6    10     1
 -0.0026605367     1     6    10     2
 -0.0052137233     1     6    10     4
 -0.0022870407     1     6    10     9
 -0.0010821733     1     6    10    10
 -0.0003712581     1     6    10    12
 -0.0069925440     1     6    11     5
 -0.0045734968     1     6    11    11
 0.0005515901     1     6    11    15
 -0.0619615590     1     6    12     1
 -0.0010409086     1     6    12     2
 -0.0026294547     1     6    12     4
 -0.0003863226     1     6    12     9
 -0.0003787942     1     6    12    10
 0.0001938899     1     6    12    12
 -0.0052046185     1     6    13     3
 -0.0019532421     1     6    13     7
 -0.0012186109     1     6    13     8
 -0.0038104732     1     6    13    13
 0.0005355493     1     6    14    14
 0.0015400594     1     6    15     5
 0.0003195540     1     6    15    11
 0.0002267125     1     6    15    15
 -0.0020929017     1     7     2     3
 0.0003201817     1     7     2     8
 0.0005768686     1     7     2    13
 -0.1494857163     1     7     3     1
 -0.0109377307     1     7     3     2
 -0.0020043911     1     7     3     4
 0.0017998178     1     7     3     6
 -0.0003812811     1     7     3     9
 0.0004788045     1     7     3    10
 0.0018342675     1     7     3    12
 0.0010182925     1     7     4     3
 -0.0012367138     1     7     4     8
 0.0001911349     1     7     4    13
 0.0012464812     1     7     5    14
 -0.0018412829     1     7     6     3
 -0.0006233944     1     7     6     8
 -0.0006437187     1     7     6    13
 -0.2838270161     1     7     7     1
 -0.0034174315     1     7     7     2
 -0.0020965488     1     7     7     4
 0.0011666300     1     7     7     6
 -0.0008008932     1     7     7     9
 0.0003349634     1     7     7    10
 0.0002929573     1     7     7    12
 -0.0652209566     1     7     8     1
 -0.0023607229     1     7     8     2
 -0.0021765599     1     7     8     4
 0.0003739568     1     7     8     6
 -0.0001347802     1     7     8     9
 0.0008187981     1     7     8    10
 0.0007298050     1     7     8    12
 0.0009070915     1     7     9     3
 0.0002565308     1     7     9     8
 -0.0003956804     1     7     9    13
 -0.0014315339     1     7    10     3
 0.0002842460     1     7    10     8
 0.0001906851     1     7    10    13
 -0.0003091807     1     7    11    14
 0.0006574658     1     7    12     3
 0.0003839564     1     7    12     8
 0.0002741317     1     7    12    13
 -0.1475130070     1     7    13     1
 -0.0062774718     1     7    13     2
 -0.0022296154     1     7    13     4
 0.0019532421     1     7    13     6
 -0.0014034467     1     7    13     9
 0.0015834116     1     7    13    10
 0.0011626392     1     7    13    12
 0.0016398867     1     7    14     5
 -0.0000602925     1     7    14    11
 0.0007706428     1     7    14    15
 0.0008085809     1     7    15    14
 -0.0024045262     1     8     2     3
 -0.0003201817     1     8     2     7
 -0.0001827515     1     8     2    13
 -0.0792853207     1     8     3     1
 -0.0087675438     1     8     3     2
 0.0021022194     1     8     3     4
 0.0022158331     1     8     3     6
 0.0009696992     1     8     3     9
 0.0022458363     1     8     3    10
 0.0021190961     1     8     3    12
 0.0040349218     1     8     4     3
 0.0012367138     1     8     4     7
 0.0025222846     1     8     4    13
 0.0008895460     1     8     5    14
 0.0004175370     1     8     6     3
 0.0006233944     1     8     6     7
 0.0007369113     1     8     6    13
 -0.0652209566     1     8     7     1
 -0.0026816709     1     8     7     2
 -0.0009583040     1     8     7     4
 0.0009984836     1     8     7     6
 -0.0003901240     1     8     7     9
 0.0005372716     1     8     7    10
 0.0003481650     1     8     7    12
 -0.3894572698     1     8     8     1
 -0.0020125690     1     8     8     2
 -0.0012996423     1     8     8     4
 0.0003507564     1     8     8     6
 0.0000191988     1     8     8     9
 0.0007828389     1     8     8    10
 0.0005922646     1     8     8    12
 -0.0000446193     1     8     9     3
 -0.0002565308     1     8     9     7
 -0.0007776643     1     8     9    13
 -0.0018387684     1     8    10     3
 -0.0002842460     1     8    10     7
 -0.0003973397     1     8    10    13
 -0.0002049522     1     8    11    14
 -0.0005976902     1     8    12     3
 -0.0003839564     1     8    12     7
 -0.0005188060     1     8    12    13
 -0.0794180187     1     8    13     1
 -0.0045301832     1     8    13     2
 -0.0027880054     1     8    13     4
 0.0012186109     1     8    13     6
 -0.0014245420     1     8    13     9
 0.0006429904     1     8    13    10
 0.0006645393     1     8    13    12
 0.0004998907     1     8    14     5
 -0.0004645172     1     8    14    11
 0.0006177576     1     8    14    15
 0.0005787793     1     8    15    14
 -0.0354718539     1     9     2     1
 0.0029815603     1     9     2     2
 -0.0023454280     1     9     2     4
 -0.0006990494     1     9     2     6
 -0.0006724377     1     9     2    10
 -0.0001300064     1     9     2    12
 0.0027889762     1     9     3     3
 0.0003812811     1     9     3     7
 -0.0009696992     1     9     3     8
 0.0007970645     1     9     3    13
 -0.1673445465     1     9     4     1
 -0.0118512490     1     9     4     2
 0.0005958855     1     9     4     4
 0.0028745157     1     9     4     6
 0.0037166035     1     9     4    10
 0.0007477286     1     9     4    12
 0.0074778927     1     9     5     5
 0.0044915052     1     9     5    11
 0.0005239523     1     9     5    15
 -0.0074133788     1     9     6     1
 -0.0021825437     1     9     6     2
 -0.0014133096     1     9     6     4
 0.0008486770     1     9     6     6
 0.0006001550     1     9     6    10
 0.0002582177     1     9     6    12
 0.0012678517     1     9     7     3
 0.0008008932     1     9     7     7
 0.0003901240     1     9     7     8
 0.0010071632     1     9     7    13
 -0.0010303673     1     9     8     3
 0.0001347802     1     9     8     7
 -0.0000191988     1     9     8     8
 0.0006436474     1     9     8    13
 -0.3825733356     1     9     9     1
 -0.0039769423     1     9     9     2
 0.0010105310     1     9     9     4
 0.0017748499     1     9     9     6
 0.0012847825     1     9     9    10
 0.0013812292     1     9     9    12
 -0.0347633564     1     9    10     1
 -0.0053029158     1     9    10     2
 0.0017590258     1     9    10     4
 0.0022870407     1     9    10     6
 0.0033014713     1     9    10    10
 0.0014718846     1     9    10    12
 0.0029806309     1     9    11     5
 0.0019948300     1     9    11    11
 -0.0006336839     1     9    11    15
 -0.0247498713     1     9    12     1
 -0.0015772121     1     9    12     2
 -0.0024951342     1     9    12     4
 0.0003863226     1     9    12     6
 0.0002815477     1     9    12    10
 0.0006280367     1     9    12    12
 0.0035681943     1     9    13     3
 0.0014034467     1     9    13     7
 0.0014245420     1     9    13     8
 0.0026521243     1     9    13    13
 0.0008054808     1     9    14    14
 0.0006429897     1     9    15     5
 -0.0006811461     1     9    15    11
 0.0005199738     1     9    15    15
 0.1110162947     1    10     2     1
 0.0036752238     1    10     2     2
 -0.0016258154     1    10     2     4
 -0.0006077248     1    10     2     6
 0.0006724377     1    10     2     9
 0.0002342009     1    10     2    12
 0.0006413256     1    10     3     3
 -0.0004788045     1    10     3     7
 -0.0022458363     1    10     3     8
 -0.0010515571     1    10     3    13
 -0.1635014795     1    10     4     1
 -0.0150964118     1    10     4     2
 -0.0102327388     1    10     4     4
 0.0016998940     1    10     4     6
 -0.0037166035     1    10     4     9
 -0.0010571663     1    10     4    12
 -0.0081216805     1    10     5     5
 -0.0051460969     1    10     5    11
 0.0025549698     1    10     5    15
 -0.1152650879     1    10     6     1
 -0.0032386381     1    10     6     2
 -0.0035735697     1    10     6     4
 0.0008154767     1    10     6     6
 -0.0006001550     1    10     6     9
 0.0000079257     1    10     6    12
 -0.0019485621     1    10     7     3
 -0.0003349634     1    10     7     7
 -0.0005372716     1    10     7     8
 -0.0013930600     1    10     7    13
 -0.0040530700     1    10     8     3
 -0.0008187981     1    10     8     7
 -0.0007828389     1    10     8     8
 -0.0010403845     1    10     8    13
 -0.0347633564     1    10     9     1
 -0.0046597068     1    10     9     2
 -0.0019013312     1    10     9     4
 0.0016893770     1    10     9     6
 -0.0012847825     1    10     9     9
 0.0011892031     1    10     9    12
 -0.4569397108     1    10    10     1
 -0.0064007476     1    10    10     2
 -0.0068094857     1    10    10     4
 0.0010821733     1    10    10     6
 -0.0033014713     1    10    10     9
 0.0001699283     1    10    10    12
 -0.0040065506     1    10    11     5
 -0.0027155107     1    10    11    11
 0.0000460383     1    10    11    15
 -0.0436933059     1    10    12     1
 -0.0023203913     1    10    12     2
 -0.0041436439     1    10    12     4
 0.0003787942     1    10    12     6
 -0.0002815477     1    10    12     9
 0.0007226100     1    10    12    12
 -0.0043565244     1    10    13     3
 -0.0015834116     1    10    13     7
 -0.0006429904     1    10    13     8
 -0.0031319272     1    10    13    13
 0.0011308309     1    10    14    14
 0.0029097887     1    10    15     5
 0.0003763237     1    10    15    11
 0.0005215323     1    10    15    15
 -0.0048536158     1    11     2     5
 -0.0004620052     1    11     2    15
 0.0023406425     1    11     3    14
 -0.0010890245     1    11     4     5
 0.0023007807     1    11     4    15
 -0.2959848778     1    11     5     1
 -0.0243388892     1    11     5     2
 -0.0077967939     1    11     5     4
 0.0048290784     1    11     5     6
 -0.0044915052     1    11     5     9
 0.0051460969     1    11     5    10
 0.0038220793     1    11     5    12
 -0.0021556821     1    11     6     5
 0.0002336841     1    11     6    15
 -0.0002460593     1    11     7    14
 0.0002606866     1    11     8    14
 -0.0014252682     1    11     9     5
 0.0000482900     1    11     9    15
 0.0011925956     1    11    10     5
 -0.0003290829     1    11    10    15
 -0.5396151572     1    11    11     1
 -0.0136076782     1    11    11     2
 -0.0045005763     1    11    11     4
 0.0045734968     1    11    11     6
 -0.0019948300     1    11    11     9
 0.0027155107     1    11    11    10
 0.0022253794     1    11    11    12
 0.0005083380     1    11    12     5
 0.0002462426     1    11    12    15
 0.0000199060     1    11    13    14
 0.0032286552     1    11    14     3
 0.0000602925     1    11    14     7
 0.0004645172     1    11    14     8
 0.0005955600     1    11    14    13
 0.0395176077     1    11    15     1
 0.0015985524     1    11    15     2
 0.0039447761     1    11    15     4
 -0.0003195540     1    11    15     6
 0.0006811461     1    11    15     9
 -0.0003763237     1    11    15    10
 0.0000357883     1    11    15    12
 0.0746898278     1    12     2     1
 0.0016008331     1    12     2     2
 -0.0011262550     1    12     2     4
 -0.0003769098     1    12     2     6
 0.0001300064     1    12     2     9
 -0.0002342009     1    12     2    10
 -0.0042439178     1    12     3     3
 -0.0018342675     1    12     3     7
 -0.0021190961     1    12     3     8
 -0.0036091249     1    12     3    13
 -0.0523049606     1    12     4     1
 -0.0065443462     1    12     4     2
 -0.0021292746     1    12     4     4
 0.0011945762     1    12     4     6
 -0.0007477286     1    12     4     9
 0.0010571663     1    12     4    10
 -0.0061352513     1    12     5     5
 -0.0038220793     1    12     5    11
 0.0013060638     1    12     5    15
 -0.0619615590     1    12     6     1
 -0.0013994379     1    12     6     2
 -0.0014598083     1    12     6     4
 0.0003308430     1    12     6     6
 -0.0002582177     1    12     6     9
 -0.0000079257     1    12     6    10
 -0.0011765266     1    12     7     3
 -0.0002929573     1    12     7     7
 -0.0003481650     1    12     7     8
 -0.0008932597     1    12     7    13
 -0.0027006728     1    12     8     3
 -0.0007298050     1    12     8     7
 -0.0005922646     1    12     8     8
 -0.0011834708     1    12     8    13
 -0.0247498713     1    12     9     1
 -0.0014728146     1    12     9     2
 -0.0032205007     1    12     9     4
 0.0001290954     1    12     9     6
 -0.0013812292     1    12     9     9
 -0.0011892031     1    12     9    10
 -0.0436933059     1    12    10     1
 -0.0025606832     1    12    10     2
 -0.0030764398     1    12    10     4
 0.0003712581     1    12    10     6
 -0.0014718846     1    12    10     9
 -0.0001699283     1    12    10    10
 -0.0033231273     1    12    11     5
 -0.0022253794     1    12    11    11
 0.0002103429     1    12    11    15
 -0.3783779359     1    12    12     1
 -0.0008753592     1    12    12     2
 -0.0032148208     1    12    12     4
 -0.0001938899     1    12    12     6
 -0.0006280367     1    12    12     9
 -0.0007226100     1    12    12    10
 -0.0031140842     1    12    13     3
 -0.0011626392     1    12    13     7
 -0.0006645393     1    12    13     8
 -0.0022858776     1    12    13    13
 0.0004626555     1    12    14    14
 0.0008441604     1    12    15     5
 -0.0000357883     1    12    15    11
 0.0002513389     1    12    15    15
 -0.0056090560     1    13     2     3
 -0.0005768686     1    13     2     7
 0.0001827515     1    13     2     8
 -0.2342252138     1    13     3     1
 -0.0212693971     1    13     3     2
 -0.0039063869     1    13     3     4
 0.0035938371     1    13     3     6
 -0.0007970645     1    13     3     9
 0.0010515571     1    13     3    10
 0.0036091249     1    13     3    12
 0.0013973620     1    13     4     3
 -0.0001911349     1    13     4     7
 -0.0025222846     1    13     4     8
 0.0023798347     1    13     5    14
 -0.0016646577     1    13     6     3
 0.0006437187     1    13     6     7
 -0.0007369113     1    13     6     8
 -0.1475130070     1    13     7     1
 -0.0068837648     1    13     7     2
 -0.0024351327     1    13     7     4
 0.0026007675     1    13     7     6
 -0.0010071632     1    13     7     9
 0.0013930600     1    13     7    10
 0.0008932597     1    13     7    12
 -0.0794180187     1    13     8     1
 -0.0043667092     1    13     8     2
 -0.0052968593     1    13     8     4
 0.0004836589     1    13     8     6
 -0.0006436474     1    13     8     9
 0.0010403845     1    13     8    10
 0.0011834708     1    13     8    12
 0.0028583517     1    13     9     3
 0.0003956804     1    13     9     7
 0.0007776643     1    13     9     8
 -0.0032766560     1    13    10     3
 -0.0001906851     1    13    10     7
 0.0003973397     1    13    10     8
 -0.0005745683     1    13    11    14
 0.0004760443     1    13    12     3
 -0.0002741317     1    13    12     7
 0.0005188060     1    13    12     8
 -0.4774621554     1    13    13     1
 -0.0121673170     1    13    13     2
 -0.0041520086     1    13    13     4
 0.0038104732     1    13    13     6
 -0.0026521243     1    13    13     9
 0.0031319272     1    13    13    10
 0.0022858776     1    13    13    12
 0.0023273586     1    13    14     5
 -0.0005955600     1    13    14    11
 0.0015361932     1    13    14    15
 0.0015305591     1    13    15    14
 -0.0037487653     1    14     3     5
 -0.0023406425     1    14     3    11
 0.0003862707     1    14     3    15
 -0.0033147557     1    14     5     3
 -0.0012464812     1    14     5     7
 -0.0008895460     1    14     5     8
 -0.0023798347     1    14     5    13
 0.0004220055     1    14     7     5
 0.0002460593     1    14     7    11
 -0.0000376968     1    14     7    15
 -0.0003867884     1    14     8     5
 -0.0002606866     1    14     8    11
 0.0000388791     1    14     8    15
 0.0008694308     1    14    11     3
 0.0003091807     1    14    11     7
 0.0002049522     1    14    11     8
 0.0005745683     1    14    11    13
 -0.0000192450     1    14    13     5
 -0.0000199060     1    14    13    11
 0.0000052326     1    14    13    15
 -0.3621972835     1    14    14     1
 0.0002585008     1    14    14     2
 -0.0024010768     1    14    14     4
 -0.0005355493     1    14    14     6
 -0.0008054808     1    14    14     9
 -0.0011308309     1    14    14    10
 -0.0004626555     1    14    14    12
 -0.0022765150     1    14    15     3
 -0.0008085809     1    14    15     7
 -0.0005787793     1    14    15     8
 -0.0015305591     1    14    15    13
 0.0015193708     1    15     2     5
 0.0004620052     1    15     2    11
 -0.0003862707     1    15     3    14
 -0.0035131687     1    15     4     5
 -0.0023007807     1    15     4    11
 0.0423442542     1    15     5     1
 0.0045169678     1    15     5     2
 -0.0021897679     1    15     5     4
 -0.0015773029     1    15     5     6
 -0.0005239523     1    15     5     9
 -0.0025549698     1    15     5    10
 -0.0013060638     1    15     5    12
 -0.0000281622     1    15     6     5
 -0.0002336841     1    15     6    11
 0.0000376968     1    15     7    14
 -0.0000388791     1    15     8    14
 0.0001366744     1    15     9     5
 -0.0000482900     1    15     9    11
 0.0003721546     1    15    10     5
 0.0003290829     1    15    10    11
 0.0395176077     1    15    11     1
 0.0020616448     1    15    11     2