&FCI NORB= 13,NELEC= 10,MS2=0,
 ORBSYM=1,1,1,1,1,1,1,1,1,1,1,1,1
 ISYM=1,
&END
 0.9850285165     1     1     2     2
 0.0671013612     1     1     2     4
 -0.1059138226     1     1     2     6
 -0.0532154603     1     1     2     8
 -0.1099315034     1     1     2    11
 0.0535414120     1     1     2    13
 0.8719930937     1     1     3     3
 0.1165104479     1     1     3     7
 -0.0450510538     1     1     3     9
 -0.2219266924     1     1     3    12
 0.0671013612     1     1     4     2
 0.9521892340     1     1     4     4
 0.0592891942     1     1     4     6
 -0.1221666295     1     1     4     8
 0.1592198807     1     1     4    11
 -0.0569656543     1     1     4    13
 0.9977504323     1     1     5     5
 0.2212835827     1     1     5    10
 -0.1059138226     1     1     6     2
 0.0592891942     1     1     6     4
 0.2794166082     1     1     6     6
 0.0146713651     1     1     6     8
 0.1063402762     1     1     6    11
 -0.0476745775     1     1     6    13
 0.1165104479     1     1     7     3
 0.2408324214     1     1     7     7
 -0.0303519722     1     1     7     9
 -0.1281023217     1     1     7    12
 -0.0532154603     1     1     8     2
 -0.1221666295     1     1     8     4
 0.0146713651     1     1     8     6
 0.3084776426     1     1     8     8
 -0.0208806843     1     1     8    11
 0.0203612125     1     1     8    13
 -0.0450510538     1     1     9     3
 -0.0303519722     1     1     9     7
 0.3135934881     1     1     9     9
 0.0676033807     1     1     9    12
 0.2212835827     1     1    10     5
 0.3949414818     1     1    10    10
 -0.1099315034     1     1    11     2
 0.1592198807     1     1    11     4
 0.1063402762     1     1    11     6
 -0.0208806843     1     1    11     8
 0.4224249231     1     1    11    11
 -0.0396037046     1     1    11    13
 -0.2219266924     1     1    12     3
 -0.1281023217     1     1    12     7
 0.0676033807     1     1    12     9
 0.4505004666     1     1    12    12
 0.0535414120     1     1    13     2
 -0.0569656543     1     1    13     4
 -0.0476745775     1     1    13     6
 0.0203612125     1     1    13     8
 -0.0396037046     1     1    13    11
 0.3355143445     1     1    13    13
 -0.9850285165     1     2     2     1
 -0.0069749154     1     2     2     4
 -0.0010180046     1     2     2     6
 0.0020850394     1     2     2     8
 -0.0033716295     1     2     2    11
 0.0014292071     1     2     2    13
 0.0310054784     1     2     3     3
 0.0084502003     1     2     3     7
 -0.0051960276     1     2     3     9
 -0.0198613503     1     2     3    12
 -0.0671013612     1     2     4     1
 0.0359252147     1     2     4     4
 0.0054455479     1     2     4     6
 -0.0077551744     1     2     4     8
 0.0143975040     1     2     4    11
 -0.0060781606     1     2     4    13
 0.0407384958     1     2     5     5
 0.0169017272     1     2     5    10
 0.1059138226     1     2     6     1
 0.0052539363     1     2     6     4
 0.0010146855     1     2     6     6
 -0.0011869941     1     2     6     8
 0.0027668162     1     2     6    11
 -0.0011244301     1     2     6    13
 0.0063044392     1     2     7     3
 0.0021557661     1     2     7     7
 -0.0012283024     1     2     7     9
 -0.0052591289     1     2     7    12
 0.0532154603     1     2     8     1
 -0.0056580343     1     2     8     4
 -0.0007850497     1     2     8     6
 0.0020861213     1     2     8     8
 -0.0030472904     1     2     8    11
 0.0009526017     1     2     8    13
 -0.0034993093     1     2     9     3
 -0.0010755749     1     2     9     7
 0.0008492913     1     2     9     9
 0.0025023572     1     2     9    12
 0.0129968424     1     2    10     5
 0.0073275808     1     2    10    10
 0.1099315034     1     2    11     1
 0.0119904825     1     2    11     4
 0.0023096294     1     2    11     6
 -0.0035516743     1     2    11     8
 0.0062397668     1     2    11    11
 -0.0024493651     1     2    11    13
 -0.0136883389     1     2    12     3
 -0.0048584042     1     2    12     7
 0.0026251237     1     2    12     9
 0.0111559491     1     2    12    12
 -0.0535414120     1     2    13     1
 -0.0046566433     1     2    13     4
 -0.0008430029     1     2    13     6
 0.0010475807     1     2    13     8
 -0.0022176598     1     2    13    11
 0.0006975798     1     2    13    13
 0.0015821913     1     3     2     7
 -0.0013999452     1     3     2     9
 -0.0049766041     1     3     2    12
 -0.8719930937     1     3     3     1
 -0.0310054784     1     3     3     2
 -0.0105470055     1     3     3     4
 0.0035603270     1     3     3     6
 0.0036336922     1     3     3     8
 0.0002099076     1     3     3    11
 -0.0033117446     1     3     3    13
 -0.0007119575     1     3     4     7
 0.0028772030     1     3     4     9
 0.0021657394     1     3     4    12
 0.0015104333     1     3     6     7
 0.0003272314     1     3     6     9
 -0.0012980155     1     3     6    12
 -0.1165104479     1     3     7     1
 -0.0063044392     1     3     7     2
 -0.0022346864     1     3     7     4
 0.0026916908     1     3     7     6
 0.0014583818     1     3     7     8
 0.0016348884     1     3     7    11
 -0.0004034197     1     3     7    13
 0.0007647282     1     3     8     7
 0.0007798828     1     3     8     9
 -0.0021490765     1     3     8    12
 0.0450510538     1     3     9     1
 0.0034993093     1     3     9     2
 0.0011231270     1     3     9     4
 -0.0008690278     1     3     9     6
 0.0009869090     1     3     9     8
 -0.0025737477     1     3     9    11
 0.0013894471     1     3     9    13
 0.0010731875     1     3    11     7
 -0.0009710844     1     3    11     9
 -0.0027766953     1     3    11    12
 0.2219266924     1     3    12     1
 0.0136883389     1     3    12     2
 0.0047305089     1     3    12     4
 -0.0042878951     1     3    12     6
 -0.0035562508     1     3    12     8
 -0.0046442042     1     3    12    11
 0.0020388611     1     3    12    13
 0.0007410567     1     3    13     7
 0.0002428134     1     3    13     9
 -0.0008228920     1     3    13    12
 -0.0671013612     1     4     2     1
 0.0069749154     1     4     2     2
 -0.0002598843     1     4     2     6
 -0.0015711353     1     4     2     8
 0.0013776739     1     4     2    11
 -0.0010102086     1     4     2    13
 0.0105470055     1     4     3     3
 0.0016559398     1     4     3     7
 0.0017244581     1     4     3     9
 -0.0028637299     1     4     3    12
 -0.9521892340     1     4     4     1
 -0.0359252147     1     4     4     2
 0.0069488495     1     4     4     6
 0.0023481854     1     4     4     8
 0.0095655277     1     4     4    11
 -0.0014465224     1     4     4    13
 0.0136670533     1     4     5     5
 0.0055501295     1     4     5    10
 -0.0592891942     1     4     6     1
 -0.0052539363     1     4     6     2
 0.0026368249     1     4     6     6
 -0.0007003625     1     4     6     8
 0.0031641143     1     4     6    11
 -0.0012267151     1     4     6    13
 0.0022346864     1     4     7     3
 0.0014729511     1     4     7     7
 -0.0007940330     1     4     7     9
 -0.0017671946     1     4     7    12
 0.1221666295     1     4     8     1
 0.0056580343     1     4     8     2
 -0.0025641258     1     4     8     6
 -0.0018590689     1     4     8     8
 -0.0009286614     1     4     8    11
 0.0018240597     1     4     8    13
 -0.0011231270     1     4     9     3
 -0.0015166641     1     4     9     7
 -0.0001254359     1     4     9     9
 0.0035343305     1     4     9    12
 0.0045934972     1     4    10     5
 0.0022806532     1     4    10    10
 -0.1592198807     1     4    11     1
 -0.0119904825     1     4    11     2
 0.0045150646     1     4    11     6
 0.0021029988     1     4    11     8
 0.0062392215     1     4    11    11
 -0.0025544406     1     4    11    13
 -0.0047305089     1     4    12     3
 -0.0019271998     1     4    12     7
 0.0019618989     1     4    12     9
 0.0048348964     1     4    12    12
 0.0569656543     1     4    13     1
 0.0046566433     1     4    13     2
 -0.0022258614     1     4    13     6
 0.0011662591     1     4    13     8
 -0.0036759401     1     4    13    11
 0.0029777176     1     4    13    13
 0.0027519352     1     5     2    10
 0.0006700940     1     5     4    10
 -0.9977504323     1     5     5     1
 -0.0407384958     1     5     5     2
 -0.0136670533     1     5     5     4
 0.0064555223     1     5     5     6
 0.0072736497     1     5     5     8
 0.0076930974     1     5     5    11
 -0.0035253230     1     5     5    13
 0.0021125266     1     5     6    10
 -0.0001819673     1     5     8    10
 -0.2212835827     1     5    10     1
 -0.0129968424     1     5    10     2
 -0.0045934972     1     5    10     4
 0.0048649487     1     5    10     6
 0.0028448436     1     5    10     8
 0.0025622398     1     5    10    11
 -0.0015379670     1     5    10    13
 -0.0008342235     1     5    11    10
 -0.0000037047     1     5    13    10
 0.1059138226     1     6     2     1
 0.0010180046     1     6     2     2
 0.0002598843     1     6     2     4
 -0.0004055100     1     6     2     8
 0.0004757547     1     6     2    11
 -0.0002907941     1     6     2    13
 -0.0035603270     1     6     3     3
 -0.0011598711     1     6     3     7
 0.0011951599     1     6     3     9
 0.0029830417     1     6     3    12
 -0.0592891942     1     6     4     1
 -0.0054455479     1     6     4     2
 -0.0069488495     1     6     4     4
 0.0018595455     1     6     4     8
 -0.0013738428     1     6     4    11
 0.0010022208     1     6     4    13
 -0.0064555223     1     6     5     5
 -0.0027082600     1     6     5    10
 -0.2794166082     1     6     6     1
 -0.0010146855     1     6     6     2
 -0.0026368249     1     6     6     4
 0.0004740579     1     6     6     8
 -0.0006382870     1     6     6    11
 0.0002576879     1     6     6    13
 -0.0026916908     1     6     7     3
 -0.0006588266     1     6     7     7
 0.0003749681     1     6     7     9
 0.0018230370     1     6     7    12
 -0.0146713651     1     6     8     1
 0.0007850497     1     6     8     2
 0.0025641258     1     6     8     4
 -0.0009750927     1     6     8     8
 0.0010560586     1     6     8    11
 -0.0001338136     1     6     8    13
 0.0008690278     1     6     9     3
 0.0000529943     1     6     9     7
 -0.0001991489     1     6     9     9
 -0.0001122534     1     6     9    12
 -0.0048649487     1     6    10     5
 -0.0022797412     1     6    10    10
 -0.1063402762     1     6    11     1
 -0.0023096294     1     6    11     2
 -0.0045150646     1     6    11     4
 0.0014817508     1     6    11     8
 -0.0009672602     1     6    11    11
 0.0003741465     1     6    11    13
 0.0042878951     1     6    12     3
 0.0012338831     1     6    12     7
 -0.0005302934     1     6    12     9
 -0.0027756198     1     6    12    12
 0.0476745775     1     6    13     1
 0.0008430029     1     6    13     2
 0.0022258614     1     6    13     4
 -0.0003022217     1     6    13     8
 0.0003625281     1     6    13    11
 0.0001623528     1     6    13    13
 -0.0015821913     1     7     2     3
 -0.0001490363     1     7     2     9
 -0.0003767583     1     7     2    12
 -0.1165104479     1     7     3     1
 -0.0084502003     1     7     3     2
 -0.0016559398     1     7     3     4
 0.0011598711     1     7     3     6
 0.0007024837     1     7     3     8
 0.0005217215     1     7     3    11
 -0.0011236829     1     7     3    13
 0.0007119575     1     7     4     3
 0.0007199878     1     7     4     9
 0.0001708301     1     7     4    12
 -0.0015104333     1     7     6     3
 0.0003215818     1     7     6     9
 0.0005872836     1     7     6    12
 -0.2408324214     1     7     7     1
 -0.0021557661     1     7     7     2
 -0.0014729511     1     7     7     4
 0.0006588266     1     7     7     6
 0.0006009071     1     7     7     8
 0.0001857748     1     7     7    11
 -0.0000087774     1     7     7    13
 -0.0007647282     1     7     8     3
 0.0003385167     1     7     8     9
 -0.0001084523     1     7     8    12
 0.0303519722     1     7     9     1
 0.0010755749     1     7     9     2
 0.0015166641     1     7     9     4
 -0.0000529943     1     7     9     6
 0.0000067072     1     7     9     8
 -0.0002233208     1     7     9    11
 0.0001978970     1     7     9    13
 -0.0010731875     1     7    11     3
 -0.0001076746     1     7    11     9
 -0.0000903498     1     7    11    12
 0.1281023217     1     7    12     1
 0.0048584042     1     7    12     2
 0.0019271998     1     7    12     4
 -0.0012338831     1     7    12     6
 -0.0011439987     1     7    12     8
 -0.0012448698     1     7    12    11
 0.0005594052     1     7    12    13
 -0.0007410567     1     7    13     3
 0.0001811480     1     7    13     9
 0.0002383027     1     7    13    12
 0.0532154603     1     8     2     1
 -0.0020850394     1     8     2     2
 0.0015711353     1     8     2     4
 0.0004055100     1     8     2     6
 0.0005355276     1     8     2    11
 -0.0001141114     1     8     2    13
 -0.0036336922     1     8     3     3
 -0.0007024837     1     8     3     7
 -0.0001951935     1     8     3     9
 0.0014691268     1     8     3    12
 0.1221666295     1     8     4     1
 0.0077551744     1     8     4     2
 -0.0023481854     1     8     4     4
 -0.0018595455     1     8     4     6
 -0.0030370791     1     8     4    11
 0.0006568597     1     8     4    13
 -0.0072736497     1     8     5     5
 -0.0030522100     1     8     5    10
 -0.0146713651     1     8     6     1
 0.0011869941     1     8     6     2
 0.0007003625     1     8     6     4
 -0.0004740579     1     8     6     6
 -0.0004269654     1     8     6    11
 0.0001689371     1     8     6    13
 -0.0014583818     1     8     7     3
 -0.0006009071     1     8     7     7
 0.0003314212     1     8     7     9
 0.0010355593     1     8     7    12
 -0.3084776426     1     8     8     1
 -0.0020861213     1     8     8     2
 0.0018590689     1     8     8     4
 0.0009750927     1     8     8     6
 0.0011731069     1     8     8    11
 -0.0007872298     1     8     8    13
 -0.0009869090     1     8     9     3
 -0.0000067072     1     8     9     7
 0.0002286770     1     8     9     9
 0.0000011001     1     8     9    12
 -0.0028448436     1     8    10     5
 -0.0013234184     1     8    10    10
 0.0208806843     1     8    11     1
 0.0035516743     1     8    11     2
 -0.0021029988     1     8    11     4
 -0.0014817508     1     8    11     6
 -0.0024822647     1     8    11    11
 0.0010116679     1     8    11    13
 0.0035562508     1     8    12     3
 0.0011439987     1     8    12     7
 -0.0008360292     1     8    12     9
 -0.0027230801     1     8    12    12
 -0.0203612125     1     8    13     1
 -0.0010475807     1     8    13     2
 -0.0011662591     1     8    13     4
 0.0003022217     1     8    13     6
 0.0003367497     1     8    13    11
 -0.0004566309     1     8    13    13
 0.0013999452     1     9     2     3
 0.0001490363     1     9     2     7
 -0.0001295369     1     9     2    12
 0.0450510538     1     9     3     1
 0.0051960276     1     9     3     2
 -0.0017244581     1     9     3     4
 -0.0011951599     1     9     3     6
 0.0001951935     1     9     3     8
 -0.0016015637     1     9     3    11
 0.0011334901     1     9     3    13
 -0.0028772030     1     9     4     3
 -0.0007199878     1     9     4     7
 0.0015584181     1     9     4    12
 -0.0003272314     1     9     6     3
 -0.0003215818     1     9     6     7
 0.0004190905     1     9     6    12
 0.0303519722     1     9     7     1
 0.0012283024     1     9     7     2
 0.0007940330     1     9     7     4
 -0.0003749681     1     9     7     6
 -0.0003314212     1     9     7     8
 -0.0001175371     1     9     7    11
 0.0000176558     1     9     7    13
 -0.0007798828     1     9     8     3
 -0.0003385167     1     9     8     7
 0.0008348701     1     9     8    12
 -0.3135934881     1     9     9     1
 -0.0008492913     1     9     9     2
 0.0001254359     1     9     9     4
 0.0001991489     1     9     9     6
 -0.0002286770     1     9     9     8
 0.0005721685     1     9     9    11
 -0.0002754900     1     9     9    13
 0.0009710844     1     9    11     3
 0.0001076746     1     9    11     7
 -0.0001913476     1     9    11    12
 -0.0676033807     1     9    12     1
 -0.0026251237     1     9    12     2
 -0.0019618989     1     9    12     4
 0.0005302934     1     9    12     6
 0.0008360292     1     9    12     8
 0.0002957927     1     9    12    11
 -0.0001616084     1     9    12    13
 -0.0002428134     1     9    13     3
 -0.0001811480     1     9    13     7
 0.0002759633     1     9    13    12
 -0.0027519352     1    10     2     5
 -0.0006700940     1    10     4     5
 -0.2212835827     1    10     5     1
 -0.0169017272     1    10     5     2
 -0.0055501295     1    10     5     4
 0.0027082600     1    10     5     6
 0.0030522100     1    10     5     8
 0.0032896187     1    10     5    11
 -0.0014939468     1    10     5    13
 -0.0021125266     1    10     6     5
 0.0001819673     1    10     8     5
 -0.3949414818     1    10    10     1
 -0.0073275808     1    10    10     2
 -0.0022806532     1    10    10     4
 0.0022797412     1    10    10     6
 0.0013234184     1    10    10     8
 0.0013217961     1    10    10    11
 -0.0007645639     1    10    10    13
 0.0008342235     1    10    11     5
 0.0000037047     1    10    13     5
 0.1099315034     1    11     2     1
 0.0033716295     1    11     2     2
 -0.0013776739     1    11     2     4
 -0.0004757547     1    11     2     6
 -0.0005355276     1    11     2     8
 -0.0002287647     1    11     2    13
 -0.0002099076     1    11     3     3
 -0.0005217215     1    11     3     7
 0.0016015637     1    11     3     9
 0.0018203832     1    11     3    12
 -0.1592198807     1    11     4     1
 -0.0143975040     1    11     4     2
 -0.0095655277     1    11     4     4
 0.0013738428     1    11     4     6
 0.0030370791     1    11     4     8
 0.0011051978     1    11     4    13
 -0.0076930974     1    11     5     5
 -0.0032896187     1    11     5    10
 -0.1063402762     1    11     6     1
 -0.0027668162     1    11     6     2
 -0.0031641143     1    11     6     4
 0.0006382870     1    11     6     6
 0.0004269654     1    11     6     8
 0.0000119274     1    11     6    13
 -0.0016348884     1    11     7     3
 -0.0001857748     1    11     7     7
 0.0001175371     1    11     7     9
 0.0011554298     1    11     7    12
 0.0208806843     1    11     8     1
 0.0030472904     1    11     8     2
 0.0009286614     1    11     8     4
 -0.0010560586     1    11     8     6
 -0.0011731069     1    11     8     8
 0.0006732401     1    11     8    13
 0.0025737477     1    11     9     3
 0.0002233208     1    11     9     7
 -0.0005721685     1    11     9     9
 -0.0004871080     1    11     9    12
 -0.0025622398     1    11    10     5
 -0.0013217961     1    11    10    10
 -0.4224249231     1    11    11     1
 -0.0062397668     1    11    11     2
 -0.0062392215     1    11    11     4
 0.0009672602     1    11    11     6
 0.0024822647     1    11    11     8
 -0.0000390013     1    11    11    13
 0.0046442042     1    11    12     3
 0.0012448698     1    11    12     7
 -0.0002957927     1    11    12     9
 -0.0026937623     1    11    12    12
 0.0396037046     1    11    13     1
 0.0022176598     1    11    13     2
 0.0036759401     1    11    13     4
 -0.0003625281     1    11    13     6
 -0.0003367497     1    11    13     8
 0.0007031791     1    11    13    13
 0.0049766041     1    12     2     3
 0.0003767583     1    12     2     7
 0.0001295369     1    12     2     9
 0.2219266924     1    12     3     1
 0.0198613503     1    12     3     2
 0.0028637299     1    12     3     4
 -0.0029830417     1    12     3     6
 -0.0014691268     1    12     3     8
 -0.0018203832     1    12     3    11
 0.0028267023     1    12     3    13
 -0.0021657394     1    12     4     3
 -0.0001708301     1    12     4     7
 -0.0015584181     1    12     4     9
 0.0012980155     1    12     6     3
 -0.0005872836     1    12     6     7
 -0.0004190905     1    12     6     9
 0.1281023217     1    12     7     1
 0.0052591289     1    12     7     2
 0.0017671946     1    12     7     4
 -0.0018230370     1    12     7     6
 -0.0010355593     1    12     7     8
 -0.0011554298     1    12     7    11
 0.0003245633     1    12     7    13
 0.0021490765     1    12     8     3
 0.0001084523     1    12     8     7
 -0.0008348701     1    12     8     9
 -0.0676033807     1    12     9     1
 -0.0025023572     1    12     9     2
 -0.0035343305     1    12     9     4
 0.0001122534     1    12     9     6
 -0.0000011001     1    12     9     8
 0.0004871080     1    12     9    11
 -0.0004384638     1    12     9    13
 0.0027766953     1    12    11     3
 0.0000903498     1    12    11     7
 0.0001913476     1    12    11     9
 -0.4505004666     1    12    12     1
 -0.0111559491     1    12    12     2
 -0.0048348964     1    12    12     4
 0.0027756198     1    12    12     6
 0.0027230801     1    12    12     8
 0.0026937623     1    12    12    11
 -0.0012276662     1    12    12    13
 0.0008228920     1    12    13     3
 -0.0002383027     1    12    13     7
 -0.0002759633     1    12    13     9
 -0.0535414120     1    13     2     1
 -0.0014292071     1    13     2     2
 0.0010102086     1    13     2     4
 0.0002907941     1    13     2     6
 0.0001141114     1    13     2     8
 0.0002287647     1    13     2    11
 0.0033117446     1    13     3     3
 0.0011236829     1    13     3     7
 -0.0011334901     1    13     3     9
 -0.0028267023     1    13     3    12
 0.0569656543     1    13     4     1
 0.0060781606     1    13     4     2
 0.0014465224     1    13     4     4
 -0.0010022208     1    13     4     6
 -0.0006568597     1    13     4     8
 -0.0011051978     1    13     4    11
 0.0035253230     1    13     5     5
 0.0014939468     1    13     5    10
 0.0476745775     1    13     6     1
 0.0011244301     1    13     6     2
 0.0012267151     1    13     6     4
 -0.0002576879     1    13     6     6
 -0.0001689371     1    13     6     8
 -0.0000119274     1    13     6    11
 0.0004034197     1    13     7     3
 0.0000087774     1    13     7     7
 -0.0000176558     1    13     7     9
 -0.0003245633     1    13     7    12
 -0.0203612125     1    13     8     1
 -0.0009526017     1    13     8     2
 -0.0018240597     1    13     8     4
 0.0001338136     1    13     8     6
 0.0007872298     1    13     8     8
 -0.0006732401     1    13     8    11
 -0.0013894471     1    13     9     3
 -0.0001978970     1    13     9     7
 0.0002754900     1    13     9     9
 0.0004384638     1    13     9    12
 0.0015379670     1    13    10     5
 0.0007645639     1    13    10    10
 0.0396037046     1    13    11     1
 0.0024493651     1    13    11     2
 0.0025544406     1    13    11     4
 -0.0003741465     1    13    11     6
 -0.0010116679     1    13    11     8
 0.0000390013     1    13    11    11
 -0.0020388611     1    13    12     3
 -0.0005594052     1    13    12     7
 0.0001616084     1    13    12     9
 0.0012276662     1    13    12    12
 -0.3355143445     1    13    13     1
 -0.0006975798     1    13    13     2
 -0.0029777176     1    13    13     4
 -0.0001623528     1    13    13     6
 0.0004566309     1    13    13     8
 -0.0007031791     1    13    13    11
 -0.9850285165     2     1     1     2
 -0.0671013612     2     1     1     4
 0.1059138226     2     1     1     6
 0.0532154603     2     1     1     8
 0.1099315034     2     1     1    11
 -0.0535414120     2     1     1    13
 0.0310054784     2     1     3     3
 0.0063044392     2     1     3     7
 -0.0034993093     2     1     3     9
 -0.0136883389     2     1     3    12
 -0.0069749154     2     1     4     2
 0.0359252147     2     1     4     4
 0.0052539363     2     1     4     6
 -0.0056580343     2     1     4     8
 0.0119904825     2     1     4    11
 -0.0046566433     2     1     4    13
 0.0407384958     2     1     5     5
 0.0129968424     2     1     5    10
 -0.0010180046     2     1     6     2
 0.0054455479     2     1     6     4
 0.0010146855     2     1     6     6
 -0.0007850497     2     1     6     8
 0.0023096294     2     1     6    11
 -0.0008430029     2     1     6    13
 0.0084502003     2     1     7     3
 0.0021557661     2     1     7     7
 -0.0010755749     2     1     7     9
 -0.0048584042     2     1     7    12
 0.0020850394     2     1     8     2
 -0.0077551744     2     1     8     4
 -0.0011869941     2     1     8     6
 0.0020861213     2     1     8     8
 -0.0035516743     2     1     8    11
 0.0010475807     2     1     8    13
 -0.0051960276     2     1     9     3
 -0.0012283024     2     1     9     7
 0.0008492913     2     1     9     9
 0.0026251237     2     1     9    12
 0.0169017272     2     1    10     5
 0.0073275808     2     1    10    10
 -0.0033716295     2     1    11     2
 0.0143975040     2     1    11     4
 0.0027668162     2     1    11     6
 -0.0030472904     2     1    11     8
 0.0062397668     2     1    11    11
 -0.0022176598     2     1    11    13
 -0.0198613503     2     1    12     3
 -0.0052591289     2     1    12     7
 0.0025023572     2     1    12     9
 0.0111559491     2     1    12    12
 0.0014292071     2     1    13     2
 -0.0060781606     2     1    13     4
 -0.0011244301     2     1    13     6
 0.0009526017     2     1    13     8
 -0.0024493651     2     1    13    11
 0.0006975798     2     1    13    13
 0.9850285165     2     2     1     1
 0.0069749154     2     2     1     4
 0.0010180046     2     2     1     6
 -0.0020850394     2     2     1     8
 0.0033716295     2     2     1    11
 -0.0014292071     2     2     1    13
 0.5289020927     2     2     3     3
 0.0497410861     2     2     3     7
 -0.0080178779     2     2     3     9
 -0.0801809959     2     2     3    12
 0.0069749154     2     2     4     1
 0.5510560593     2     2     4     4
 0.0264846027     2     2     4     6
 -0.0525246612     2     2     4     8
 0.0629345176     2     2     4    11
 -0.0165818667     2     2     4    13
 0.5777133091     2     2     5     5
 0.0934851126     2     2     5    10
 0.0010180046     2     2     6     1
 0.0264846027     2     2     6     4
 0.2546218935     2     2     6     6
 0.0067245852     2     2     6     8
 0.0672881974     2     2     6    11
 -0.0310455104     2     2     6    13
 0.0497410861     2     2     7     3
 0.2241176593     2     2     7     7
 -0.0222134368     2     2     7     9
 -0.0818873408     2     2     7    12
 -0.0020850394     2     2     8     1
 -0.0525246612     2     2     8     4
 0.0067245852     2     2     8     6
 0.2736867898     2     2     8     8
 -0.0015470607     2     2     8    11
 0.0218431336     2     2     8    13
 -0.0080178779     2     2     9     3
 -0.0222134368     2     2     9     7
 0.2969672370     2     2     9     9
 0.0470241169     2     2     9    12
 0.0934851126     2     2    10     5
 0.3239681949     2     2    10    10
 0.0033716295     2     2    11     1
 0.0629345176     2     2    11     4
 0.0672881974     2     2    11     6
 -0.0015470607     2     2    11     8
 0.3470268481     2     2    11    11
 -0.0139245105     2     2    11    13
 -0.0801809959     2     2    12     3
 -0.0818873408     2     2    12     7
 0.0470241169     2     2    12     9
 0.3501109414     2     2    12    12
 -0.0014292071     2     2    13     1
 -0.0165818667     2     2    13     4
 -0.0310455104     2     2    13     6
 0.0218431336     2     2    13     8
 -0.0139245105     2     2    13    11
 0.3254831021     2     2    13    13
 -0.0015821913     2     3     1     7
 0.0013999452     2     3     1     9
 0.0049766041     2     3     1    12
 -0.0310054784     2     3     3     1
 -0.5289020927     2     3     3     2
 -0.0017110824     2     3     3     4
 0.0485703301     2     3     3     6
 0.0247980293     2     3     3     8
 0.0612659065     2     3     3    11
 -0.0073526163     2     3     3    13
 0.0057904815     2     3     4     7
 -0.0197632014     2     3     4     9
 -0.0152548482     2     3     4    12
 -0.0246536160     2     3     6     7
 -0.0000393556     2     3     6     9
 0.0195886752     2     3     6    12
 -0.0084502003     2     3     7     1
 -0.0497410861     2     3     7     2
 0.0003279738     2     3     7     4
 -0.0169593604     2     3     7     6
 -0.0026950848     2     3     7     8
 -0.0041688820     2     3     7    11
 -0.0101753315     2     3     7    13
 -0.0070351986     2     3     8     7
 -0.0154987487     2     3     8     9
 0.0201156079     2     3     8    12
 0.0051960276     2     3     9     1
 0.0080178779     2     3     9     2
 -0.0032586570     2     3     9     4
 -0.0007093561     2     3     9     6
 -0.0179304521     2     3     9     8
 0.0182838157     2     3     9    11
 -0.0086673956     2     3     9    13
 -0.0137391554     2     3    11     7
 0.0175275463     2     3    11     9
 0.0346882795     2     3    11    12
 0.0198613503     2     3    12     1
 0.0801809959     2     3    12     2
 -0.0004404861     2     3    12     4
 0.0071133371     2     3    12     6
 0.0121808477     2     3    12     8
 0.0200971977     2     3    12    11
 0.0043211126     2     3    12    13
 -0.0076166991     2     3    13     7
 -0.0106683266     2     3    13     9
 -0.0013217850     2     3    13    12
 0.0671013612     2     4     1     1
 -0.0069749154     2     4     1     2
 0.0002598843     2     4     1     6