&FCI NORB= 11,NELEC= 16,MS2=0,
 ORBSYM=1,1,1,1,1,1,1,1,1,1,1
 ISYM=1,
&END
 0.3951716093     1     1     2     2
 0.0050928343     1     1     2     4
 0.0013615670     1     1     2    11
 0.5961485014     1     1     3     3
 0.1106138573     1     1     3     6
 0.0336123726     1     1     3     9
 0.0050928343     1     1     4     2
 0.4823001717     1     1     4     4
 0.0574639446     1     1     4    11
 0.4843026845     1     1     5     5
 0.1106138573     1     1     6     3
 0.5632142650     1     1     6     6
 -0.0470145991     1     1     6     9
 0.4496714829     1     1     7     7
 0.5352684274     1     1     8     8
 0.0336123726     1     1     9     3
 -0.0470145991     1     1     9     6
 0.2245189261     1     1     9     9
 0.4012345672     1     1    10    10
 0.0013615670     1     1    11     2
 0.0574639446     1     1    11     4
 0.2053361501     1     1    11    11
 -0.3951716093     1     2     2     1
 -0.0041760767     1     2     2     3
 -0.0127487975     1     2     2     6
 0.0025541755     1     2     2     9
 -0.1502304284     1     2     3     4
 -0.0339754557     1     2     3    11
 -0.0050928343     1     2     4     1
 -0.1503429387     1     2     4     3
 0.1295895189     1     2     4     6
 -0.0418835737     1     2     4     9
 0.1668408463     1     2     5     7
 0.1299225572     1     2     6     4
 0.0102177088     1     2     6    11
 0.1666368829     1     2     7     5
 -0.1115669058     1     2     8    10
 -0.0419399887     1     2     9     4
 -0.0373185609     1     2     9    11
 -0.1113193841     1     2    10     8
 -0.0013615670     1     2    11     1
 -0.0339906379     1     2    11     3
 0.0101293225     1     2    11     6
 -0.0372997892     1     2    11     9
 0.0041760767     1     3     2     2
 0.0001135497     1     3     2     4
 0.0000261879     1     3     2    11
 -0.5961485014     1     3     3     1
 -0.0090982993     1     3     3     6
 0.0026277290     1     3     3     9
 0.1503429387     1     3     4     2
 -0.0052623105     1     3     4     4
 -0.0011220891     1     3     4    11
 -0.0117638734     1     3     5     5
 -0.1106138573     1     3     6     1
 -0.0177813984     1     3     6     6
 0.0048839612     1     3     6     9
 -0.0087187610     1     3     7     7
 -0.0137295412     1     3     8     8
 -0.0336123726     1     3     9     1
 0.0023255178     1     3     9     6
 -0.0009111738     1     3     9     9
 -0.0066961590     1     3    10    10
 0.0339906379     1     3    11     2
 -0.0007582574     1     3    11     4
 -0.0005617609     1     3    11    11
 -0.0050928343     1     4     2     1
 -0.0001135497     1     4     2     3
 -0.0003339531     1     4     2     6
 0.0000674509     1     4     2     9
 0.1502304284     1     4     3     2
 -0.0002153093     1     4     3    11
 -0.4823001717     1     4     4     1
 0.0052623105     1     4     4     3
 0.0027260733     1     4     4     6
 0.0000830409     1     4     4     9
 0.0060351540     1     4     5     7
 -0.1299225572     1     4     6     2
 0.0001593032     1     4     6    11
 0.0080933073     1     4     7     5
 -0.0046937250     1     4     8    10
 0.0419399887     1     4     9     2
 0.0004300221     1     4     9    11
 -0.0054251169     1     4    10     8
 -0.0574639446     1     4    11     1
 0.0007582574     1     4    11     3
 0.0005643692     1     4    11     6
 0.0004889884     1     4    11     9
 0.0001998427     1     5     2     7
 -0.0020444559     1     5     4     7
 -0.4843026845     1     5     5     1
 0.0117638734     1     5     5     3
 -0.0036701447     1     5     5     6
 0.0018197139     1     5     5     9
 -0.1666368829     1     5     7     2
 -0.0080933073     1     5     7     4
 -0.0015712246     1     5     7    11
 -0.0000048933     1     5    11     7
 0.0127487975     1     6     2     2
 0.0003339531     1     6     2     4
 0.0000905088     1     6     2    11
 -0.1106138573     1     6     3     1
 0.0090982993     1     6     3     3
 0.0023044724     1     6     3     9
 -0.1295895189     1     6     4     2
 -0.0027260733     1     6     4     4
 -0.0004120387     1     6     4    11
 0.0036701447     1     6     5     5
 -0.5632142650     1     6     6     1
 0.0177813984     1     6     6     3
 0.0042901538     1     6     6     9
 0.0017397343     1     6     7     7
 0.0040702021     1     6     8     8
 0.0470145991     1     6     9     1
 -0.0023255178     1     6     9     3
 -0.0003896681     1     6     9     9
 0.0009622413     1     6    10    10
 -0.0101293225     1     6    11     2
 -0.0005643692     1     6    11     4
 -0.0006013540     1     6    11    11
 -0.0001998427     1     7     2     5
 0.0020444559     1     7     4     5
 -0.1668408463     1     7     5     2
 -0.0060351540     1     7     5     4
 -0.0015806800     1     7     5    11
 -0.4496714829     1     7     7     1
 0.0087187610     1     7     7     3
 -0.0017397343     1     7     7     6
 0.0014300014     1     7     7     9
 0.0000048933     1     7    11     5
 -0.0002348558     1     8     2    10
 0.0015468952     1     8     4    10
 -0.5352684274     1     8     8     1
 0.0137295412     1     8     8     3
 -0.0040702021     1     8     8     6
 0.0037435788     1     8     8     9
 0.1113193841     1     8    10     2
 0.0054251169     1     8    10     4
 0.0018416050     1     8    10    11
 0.0001560216     1     8    11    10
 -0.0025541755     1     9     2     2
 -0.0000674509     1     9     2     4
 -0.0000203084     1     9     2    11
 -0.0336123726     1     9     3     1
 -0.0026277290     1     9     3     3
 -0.0023044724     1     9     3     6
 0.0418835737     1     9     4     2
 -0.0000830409     1     9     4     4
 -0.0000455070     1     9     4    11
 -0.0018197139     1     9     5     5
 0.0470145991     1     9     6     1
 -0.0048839612     1     9     6     3
 -0.0042901538     1     9     6     6
 -0.0014300014     1     9     7     7
 -0.0037435788     1     9     8     8
 -0.2245189261     1     9     9     1
 0.0009111738     1     9     9     3
 0.0003896681     1     9     9     6
 -0.0016082083     1     9    10    10
 0.0372997892     1     9    11     2
 -0.0004889884     1     9    11     4
 -0.0000585552     1     9    11    11
 0.0002348558     1    10     2     8
 -0.0015468952     1    10     4     8
 0.1115669058     1    10     8     2
 0.0046937250     1    10     8     4
 0.0018215742     1    10     8    11
 -0.4012345672     1    10    10     1
 0.0066961590     1    10    10     3
 -0.0009622413     1    10    10     6
 0.0016082083     1    10    10     9
 -0.0001560216     1    10    11     8
 -0.0013615670     1    11     2     1
 -0.0000261879     1    11     2     3
 -0.0000905088     1    11     2     6
 0.0000203084     1    11     2     9
 0.0339754557     1    11     3     2
 0.0002153093     1    11     3     4
 -0.0574639446     1    11     4     1
 0.0011220891     1    11     4     3
 0.0004120387     1    11     4     6
 0.0000455070     1    11     4     9
 0.0015806800     1    11     5     7
 -0.0102177088     1    11     6     2
 -0.0001593032     1    11     6     4
 0.0015712246     1    11     7     5
 -0.0018215742     1    11     8    10
 0.0373185609     1    11     9     2
 -0.0004300221     1    11     9     4
 -0.0018416050     1    11    10     8
 -0.2053361501     1    11    11     1
 0.0005617609     1    11    11     3
 0.0006013540     1    11    11     6
 0.0000585552     1    11    11     9
 -0.3951716093     2     1     1     2
 -0.0050928343     2     1     1     4
 -0.0013615670     2     1     1    11
 -0.0041760767     2     1     3     2
 -0.1503429387     2     1     3     4
 -0.0339906379     2     1     3    11
 -0.1502304284     2     1     4     3
 0.1299225572     2     1     4     6
 -0.0419399887     2     1     4     9
 0.1666368829     2     1     5     7
 -0.0127487975     2     1     6     2
 0.1295895189     2     1     6     4
 0.0101293225     2     1     6    11
 0.1668408463     2     1     7     5
 -0.1113193841     2     1     8    10
 0.0025541755     2     1     9     2
 -0.0418835737     2     1     9     4
 -0.0372997892     2     1     9    11
 -0.1115669058     2     1    10     8
 -0.0339754557     2     1    11     3
 0.0102177088     2     1    11     6
 -0.0373185609     2     1    11     9
 0.3951716093     2     2     1     1
 0.0041760767     2     2     1     3
 0.0127487975     2     2     1     6
 -0.0025541755     2     2     1     9
 0.0041760767     2     2     3     1
 0.5961680510     2     2     3     3
 0.1108062974     2     2     3     6
 0.0335674132     2     2     3     9
 0.4822003335     2     2     4     4
 0.0574270740     2     2     4    11
 0.4845552483     2     2     5     5
 0.0127487975     2     2     6     1
 0.1108062974     2     2     6     3
 0.5640170214     2     2     6     6
 -0.0471765282     2     2     6     9
 0.4495231697     2     2     7     7
 0.5356186176     2     2     8     8
 -0.0025541755     2     2     9     1
 0.0335674132     2     2     9     3
 -0.0471765282     2     2     9     6
 0.2245569219     2     2     9     9
 0.4011020584     2     2    10    10
 0.0574270740     2     2    11     4
 0.2053293888     2     2    11    11
 -0.0041760767     2     3     1     2
 -0.0001135497     2     3     1     4
 -0.0000261879     2     3     1    11
 -0.5961680510     2     3     3     2
 -0.0037741532     2     3     3     4
 -0.0013322261     2     3     3    11
 0.1502304284     2     3     4     1
 -0.0109793245     2     3     4     6
 0.0025539905     2     3     4     9
 -0.0132590809     2     3     5     7
 -0.1108062974     2     3     6     2
 -0.0120236100     2     3     6     4
 -0.0029225967     2     3     6    11
 -0.0109443651     2     3     7     5
 0.0114026959     2     3     8    10
 -0.0335674132     2     3     9     2
 0.0016918240     2     3     9     4
 0.0011396272     2     3     9    11
 0.0075453509     2     3    10     8
 0.0339754557     2     3    11     1
 -0.0015608653     2     3    11     6
 0.0011513849     2     3    11     9
 0.0050928343     2     4     1     1
 0.0001135497     2     4     1     3
 0.0003339531     2     4     1     6
 -0.0000674509     2     4     1     9
 0.1503429387     2     4     3     1
 0.0037741532     2     4     3     3
 0.0010337726     2     4     3     6
 0.0006153441     2     4     3     9
 -0.4822003335     2     4     4     2
 -0.0000168319     2     4     4    11
 0.0097896919     2     4     5     5
 -0.1295895189     2     4     6     1
 0.0120236100     2     4     6     3
 0.0162886575     2     4     6     6
 -0.0016225037     2     4     6     9
 0.0094377412     2     4     7     7
 0.0117835511     2     4     8     8
 0.0418835737     2     4     9     1
 -0.0016918240     2     4     9     3
 -0.0025954557     2     4     9     6
 0.0006561178     2     4     9     9
 0.0067194745     2     4    10    10
 -0.0574270740     2     4    11     2
 -0.0000296776     2     4    11    11
 -0.0001998427     2     5     1     7
 -0.0023003363     2     5     3     7
 -0.4845552483     2     5     5     2
 -0.0097896919     2     5     5     4
 -0.0025677034     2     5     5    11
 -0.0009627637     2     5     6     7
 -0.1668408463     2     5     7     1
 0.0109443651     2     5     7     3
 0.0033377706     2     5     7     6
 0.0004898039     2     5     7     9
 0.0003549611     2     5     9     7
 -0.0127487975     2     6     1     2
 -0.0003339531     2     6     1     4
 -0.0000905088     2     6     1    11
 -0.1108062974     2     6     3     2
 -0.0010337726     2     6     3     4
 -0.0011051144     2     6     3    11
 -0.1299225572     2     6     4     1
 0.0109793245     2     6     4     3
 0.0013312009     2     6     4     9
 -0.0042833881     2     6     5     7
 -0.5640170214     2     6     6     2
 -0.0162886575     2     6     6     4
 -0.0038095429     2     6     6    11
 -0.0033377706     2     6     7     5
 0.0048835384     2     6     8    10
 0.0471765282     2     6     9     2
 0.0025954557     2     6     9     4
 0.0021960089     2     6     9    11
 0.0021763022     2     6    10     8
 -0.0102177088     2     6    11     1
 0.0015608653     2     6    11     3
 0.0018792344     2     6    11     9
 0.0001998427     2     7     1     5
 0.0023003363     2     7     3     5
 -0.1666368829     2     7     5     1
 0.0132590809     2     7     5     3
 0.0042833881     2     7     5     6
 0.0000967324     2     7     5     9
 0.0009627637     2     7     6     5
 -0.4495231697     2     7     7     2
 -0.0094377412     2     7     7     4
 -0.0019442969     2     7     7    11
 -0.0003549611     2     7     9     5
 0.0002348558     2     8     1    10
 0.0026497158     2     8     3    10
 0.0020317906     2     8     6    10
 -0.5356186176     2     8     8     2
 -0.0117835511     2     8     8     4
 -0.0038034632     2     8     8    11
 -0.0002572216     2     8     9    10
 0.1115669058     2     8    10     1
 -0.0075453509     2     8    10     3
 -0.0021763022     2     8    10     6
 -0.0011114058     2     8    10     9
 0.0025541755     2     9     1     2
 0.0000674509     2     9     1     4
 0.0000203084     2     9     1    11
 -0.0335674132     2     9     3     2
 -0.0006153441     2     9     3     4
 -0.0000079569     2     9     3    11
 0.0419399887     2     9     4     1
 -0.0025539905     2     9     4     3
 -0.0013312009     2     9     4     6
 -0.0000967324     2     9     5     7
 0.0471765282     2     9     6     2
 0.0016225037     2     9     6     4
 0.0003454678     2     9     6    11
 -0.0004898039     2     9     7     5
 0.0009378899     2     9     8    10
 -0.2245569219     2     9     9     2
 -0.0006561178     2     9     9     4
 -0.0004330804     2     9     9    11
 0.0011114058     2     9    10     8
 0.0373185609     2     9    11     1
 -0.0011513849     2     9    11     3
 -0.0018792344     2     9    11     6
 -0.0002348558     2    10     1     8
 -0.0026497158     2    10     3     8
 -0.0020317906     2    10     6     8
 0.1113193841     2    10     8     1
 -0.0114026959     2    10     8     3
 -0.0048835384     2    10     8     6
 -0.0009378899     2    10     8     9
 0.0002572216     2    10     9     8
 -0.4011020584     2    10    10     2
 -0.0067194745     2    10    10     4
 -0.0018762116     2    10    10    11
 0.0013615670     2    11     1     1
 0.0000261879     2    11     1     3
 0.0000905088     2    11     1     6
 -0.0000203084     2    11     1     9
 0.0339906379     2    11     3     1
 0.0013322261     2    11     3     3
 0.0011051144     2    11     3     6
 0.0000079569     2    11     3     9
 -0.0574270740     2    11     4     2
 0.0000168319     2    11     4     4
 0.0025677034     2    11     5     5
 -0.0101293225     2    11     6     1
 0.0029225967     2    11     6     3
 0.0038095429     2    11     6     6
 -0.0003454678     2    11     6     9
 0.0019442969     2    11     7     7
 0.0038034632     2    11     8     8
 0.0372997892     2    11     9     1
 -0.0011396272     2    11     9     3
 -0.0021960089     2    11     9     6
 0.0004330804     2    11     9     9
 0.0018762116     2    11    10    10
 -0.2053293888     2    11    11     2
 0.0000296776     2    11    11     4
 -0.5961485014     3     1     1     3
 -0.1106138573     3     1     1     6
 -0.0336123726     3     1     1     9
 0.0041760767     3     1     2     2
 0.1503429387     3     1     2     4
 0.0339906379     3     1     2    11
 0.0001135497     3     1     4     2
 -0.0052623105     3     1     4     4
 -0.0007582574     3     1     4    11
 -0.0117638734     3     1     5     5
 -0.0090982993     3     1     6     3
 -0.0177813984     3     1     6     6
 0.0023255178     3     1     6     9
 -0.0087187610     3     1     7     7
 -0.0137295412     3     1     8     8
 0.0026277290     3     1     9     3
 0.0048839612     3     1     9     6
 -0.0009111738     3     1     9     9
 -0.0066961590     3     1    10    10
 0.0000261879     3     1    11     2
 -0.0011220891     3     1    11     4
 -0.0005617609     3     1    11    11
 0.1502304284     3     2     1     4
 0.0339754557     3     2     1    11
 -0.0041760767     3     2     2     1
 -0.5961680510     3     2     2     3
 -0.1108062974     3     2     2     6
 -0.0335674132     3     2     2     9
 -0.0001135497     3     2     4     1
 -0.0037741532     3     2     4     3
 -0.0120236100     3     2     4     6
 0.0016918240     3     2     4     9
 -0.0109443651     3     2     5     7
 -0.0109793245     3     2     6     4
 -0.0015608653     3     2     6    11
 -0.0132590809     3     2     7     5
 0.0075453509     3     2     8    10
 0.0025539905     3     2     9     4
 0.0011513849     3     2     9    11
 0.0114026959     3     2    10     8
 -0.0000261879     3     2    11     1
 -0.0013322261     3     2    11     3
 -0.0029225967     3     2    11     6
 0.0011396272     3     2    11     9
 0.5961485014     3     3     1     1
 0.0090982993     3     3     1     6
 -0.0026277290     3     3     1     9
 0.5961680510     3     3     2     2
 0.0037741532     3     3     2     4
 0.0013322261     3     3     2    11
 0.0037741532     3     3     4     2
 0.3150482574     3     3     4     4
 0.0242789163     3     3     4    11
 0.3528892056     3     3     5     5
 0.0090982993     3     3     6     1
 0.3841162541     3     3     6     6
 -0.0280222347     3     3     6     9
 0.3528960775     3     3     7     7
 0.3899954666     3     3     8     8
 -0.0026277290     3     3     9     1
 -0.0280222347     3     3     9     6
 0.2100565678     3     3     9     9
 0.3293318291     3     3    10    10
 0.0013322261     3     3    11     2
 0.0242789163     3     3    11     4
 0.1906708433     3     3    11    11
 -0.1502304284     3     4     1     2
 0.0002153093     3     4     1    11
 -0.1503429387     3     4     2     1
 -0.0037741532     3     4     2     3
 -0.0010337726     3     4     2     6
 -0.0006153441     3     4     2     9
 0.0052623105     3     4     4     1
 -0.3150482574     3     4     4     3
 -0.0891291794     3     4     4     6
 -0.0016729000     3     4     4     9
 -0.0554043403     3     4     5     7
 0.0109793245     3     4     6     2
 0.0093699465     3     4     6    11
 -0.0330756150     3     4     7     5
 0.0424285673     3     4     8    10
 -0.0025539905     3     4     9     2
 0.0236957597     3     4     9    11
 0.0285845135     3     4    10     8
 0.0011220891     3     4    11     1
 -0.0242789163     3     4    11     3
 -0.0065846583     3     4    11     6
 0.0240956651     3     4    11     9
 0.0023003363     3     5     2     7
 -0.0223132034     3     5     4     7
 0.0117638734     3     5     5     1
 -0.3528892056     3     5     5     3
 -0.0558320606     3     5     5     6
 -0.0198209570     3     5     5     9
 0.0132590809     3     5     7     2
 0.0330756150     3     5     7     4
 0.0115939651     3     5     7    11
 0.0005453994     3     5    11     7
 0.1106138573     3     6     1     1
 -0.0090982993     3     6     1     3
 -0.0023044724     3     6     1     9
 0.1108062974     3     6     2     2
 0.0010337726     3     6     2     4
 0.0011051144     3     6     2    11
 0.0120236100     3     6     4     2
 0.0891291794     3     6     4     4
 0.0165714426     3     6     4    11
 0.0558320606     3     6     5     5
 0.0177813984     3     6     6     1
 -0.3841162541     3     6     6     3
 -0.0202814511     3     6     6     9
 0.0412851875     3     6     7     7
 0.0562843997     3     6     8     8
 -0.0048839612     3     6     9     1
 0.0280222347     3     6     9     3
 0.0069874232     3     6     9     9
 0.0298908018     3     6    10    10
 0.0029225967     3     6    11     2
 0.0065846583     3     6    11     4
 0.0001067262     3     6    11    11
 -0.0023003363     3     7     2     5
 0.0223132034     3     7     4     5
 0.0109443651     3     7     5     2
 0.0554043403     3     7     5     4
 0.0111591285     3     7     5    11
 0.0087187610     3     7     7     1
 -0.3528960775     3     7     7     3
 -0.0412851875     3     7     7     6
 -0.0149200703     3     7     7     9
 -0.0005453994     3     7    11     5
 -0.0026497158     3     8     2    10
 0.0137268527     3     8     4    10
 0.0137295412     3     8     8     1
 -0.3899954666     3     8     8     3
 -0.0562843997     3     8     8     6
 -0.0153763865     3     8     8     9
 0.0000000001     3     8     8    11
 -0.0114026959     3     8    10     2
 -0.0285845135     3     8    10     4
 -0.0074623046     3     8    10    11
 0.0000118961     3     8    11    10
 0.0336123726     3     9     1     1
 0.0026277290     3     9     1     3
 0.0023044724     3     9     1     6
 0.0335674132     3     9     2     2
 0.0006153441     3     9     2     4
 0.0000079569     3     9     2    11
 -0.0016918240     3     9     4     2
 0.0016729000     3     9     4     4
 -0.0001573719     3     9     4    11
 0.0198209570     3     9     5     5
 -0.0023255178     3     9     6     1
 0.0280222347     3     9     6     3
 0.0202814511     3     9     6     6
 0.0149200703     3     9     7     7
 0.0153763865     3     9     8     8
 -0.0000000001     3     9     8    10
 0.0009111738     3     9     9     1
 -0.2100565678     3     9     9     3
 -0.0069874232     3     9     9     6
 0.0000000002     3     9     9    11
 0.0119502564     3     9    10    10
 -0.0011396272     3     9    11     2
 -0.0240956651     3     9    11     4
 0.0015816729     3     9    11    11
 0.0026497158     3    10     2     8
 -0.0137268527     3    10     4     8
 -0.0075453509     3    10     8     2
 -0.0424285673     3    10     8     4
 0.0000000001     3    10     8     9
 -0.0067283830     3    10     8    11
 0.0066961590     3    10    10     1
 -0.3293318291     3    10    10     3
 -0.0298908018     3    10    10     6
 -0.0119502564     3    10    10     9
 0.0000000005     3    10    10    11
 -0.0000118961     3    10    11     8
 -0.0339754557     3    11     1     2
 -0.0002153093     3    11     1     4
 -0.0339906379     3    11     2     1
 -0.0013322261     3    11     2     3
 -0.0011051144     3    11     2     6
 -0.0000079569     3    11     2     9
 0.0007582574     3    11     4     1
 -0.0242789163     3    11     4     3
 -0.0165714426     3    11     4     6
 0.0001573719     3    11     4     9
 -0.0111591285     3    11     5     7
 0.0015608653     3    11     6     2
 -0.0093699465     3    11     6     4
 -0.0115939651     3    11     7     5
 -0.0000000001     3    11     8     8
 0.0067283830     3    11     8    10
 -0.0011513849     3    11     9     2
 -0.0236957597     3    11     9     4
 -0.0000000002     3    11     9     9
 0.0074623046     3    11    10     8
 -0.0000000005     3    11    10    10
 0.0005617609     3    11    11     1
 -0.1906708433     3    11    11     3
 -0.0001067262     3    11    11     6
 -0.0015816729     3    11    11     9
 -0.0050928343     4     1     1     2
 -0.4823001717     4     1     1     4
 -0.0574639446     4     1     1    11
 0.1502304284     4     1     2     3
 -0.1299225572     4     1     2     6
 0.0419399887     4     1     2     9
 -0.0001135497     4     1     3     2
 0.0052623105     4     1     3     4
 0.0007582574     4     1     3    11
 0.0080933073     4     1     5     7
 -0.0003339531     4     1     6     2
 0.0027260733     4     1     6     4
 0.0005643692     4     1     6    11
 0.0060351540     4     1     7     5
 -0.0054251169     4     1     8    10
 0.0000674509     4     1     9     2
 0.0000830409     4     1     9     4
 0.0004889884     4     1     9    11
 -0.0046937250     4     1    10     8
 -0.0002153093     4     1    11     3
 0.0001593032     4     1    11     6
 0.0004300221     4     1    11     9
 0.0050928343     4     2     1     1
 0.1503429387     4     2     1     3
 -0.1295895189     4     2     1     6
 0.0418835737     4     2     1     9
 -0.4822003335     4     2     2     4
 -0.0574270740     4     2     2    11
 0.0001135497     4     2     3     1
 0.0037741532     4     2     3     3
 0.0120236100     4     2     3     6
 -0.0016918240     4     2     3     9
 0.0097896919     4     2     5     5
 0.0003339531     4     2     6     1
 0.0010337726     4     2     6     3
 0.0162886575     4     2     6     6
 -0.0025954557     4     2     6     9
 0.0094377412     4     2     7     7
 0.0117835511     4     2     8     8
 -0.0000674509     4     2     9     1
 0.0006153441     4     2     9     3
 -0.0016225037     4     2     9     6
 0.0006561178     4     2     9     9
 0.0067194745     4     2    10    10
 -0.0000168319     4     2    11     4
 -0.0000296776     4     2    11    11
 -0.1503429387     4     3     1     2
 0.0052623105     4     3     1     4
 0.0011220891     4     3     1    11
 -0.1502304284     4     3     2     1
 0.0109793245     4     3     2     6
 -0.0025539905     4     3     2     9
 -0.0037741532     4     3     3     2
 -0.3150482574     4     3     3     4
 -0.0242789163     4     3     3    11
 -0.0330756150     4     3     5     7
 -0.0010337726     4     3     6     2
 -0.0891291794     4     3     6     4
 -0.0065846583     4     3     6    11
 -0.0554043403     4     3     7     5
 0.0285845135     4     3     8    10
 -0.0006153441     4     3     9     2
 -0.0016729000     4     3     9     4
 0.0240956651     4     3     9    11
 0.0424285673     4     3    10     8
 0.0002153093     4     3    11     1
 0.0093699465     4     3    11     6
 0.0236957597     4     3    11     9
 0.4823001717     4     4     1     1
 -0.0052623105     4     4     1     3
 -0.0027260733     4     4     1     6
 -0.0000830409     4     4     1     9
 0.4822003335     4     4     2     2
 0.0000168319     4     4     2    11
 -0.0052623105     4     4     3     1
 0.3150482574     4     4     3     3
 0.0891291794     4     4     3     6
 0.0016729000     4     4     3     9
 0.3252670277     4     4     5     5
 -0.0027260733     4     4     6     1
 0.0891291794     4     4     6     3
 0.2987186633     4     4     6     6
 -0.0102647014     4     4     6     9
 0.2963934319     4     4     7     7
 0.3489645918     4     4     8     8
 -0.0000830409     4     4     9     1
 0.0016729000     4     4     9     3
 -0.0102647014     4     4     9     6
 0.2022901001     4     4     9     9
 0.2956372387     4     4    10    10
 0.0000168319     4     4    11     2
 0.1907326663     4     4    11    11
 0.0020444559     4     5     1     7
 0.0223132034     4     5     3     7
 -0.0097896919     4     5     5     2
 -0.3252670277     4     5     5     4
 -0.0270188184     4     5     5    11
 0.0005799118     4     5     6     7
 -0.0060351540     4     5     7     1
 0.0554043403     4     5     7     3
 -0.0621585117     4     5     7     6
 0.0182718978     4     5     7     9
 -0.0045191041     4     5     9     7
 0.1295895189     4     6     1     2
 0.0027260733     4     6     1     4
 0.0004120387     4     6     1    11
 0.1299225572     4     6     2     1
 -0.0109793245     4     6     2     3
 -0.0013312009     4     6     2     9
 -0.0120236100     4     6     3     2
 -0.0891291794     4     6     3     4
 -0.0165714426     4     6     3    11
 0.0626447733     4     6     5     7
 -0.0162886575     4     6     6     2
 -0.2987186633     4     6     6     4
 -0.0326545051     4     6     6    11
 0.0621585117     4     6     7     5
 -0.0538093455     4     6     8    10
 0.0016225037     4     6     9     2
 0.0102647014     4     6     9     4
 0.0000000001     4     6     9     9
 -0.0275919408     4     6     9    11
 -0.0462362825     4     6    10     8
 -0.0001593032     4     6    11     1
 -0.0093699465     4     6    11     3
 -0.0306081213     4     6    11     9
 -0.0020444559     4     7     1     5
 -0.0223132034     4     7     3     5
 -0.0080933073     4     7     5     1
 0.0330756150     4     7     5     3
 -0.0626447733     4     7     5     6
 0.0232759912     4     7     5     9
 -0.0005799118     4     7     6     5
 -0.0094377412     4     7     7     2
 -0.2963934319     4     7     7     4
 -0.0266302383     4     7     7    11
 0.0045191041     4     7     9     5
 -0.0015468952     4     8     1    10
 -0.0137268527     4     8     3    10
 -0.0062509046     4     8     6    10
 -0.0117835511     4     8     8     2
 -0.3489645918     4     8     8     4
 -0.0296613128     4     8     8    11
 0.0004158630     4     8     9    10
 0.0046937250     4     8    10     1
 -0.0424285673     4     8    10     3
 0.0462362825     4     8    10     6
 -0.0124100396     4     8    10     9
 0.0000000001     4     8    10    11
 -0.0418835737     4     9     1     2
 0.0000830409     4     9     1     4
 0.0000455070     4     9     1    11
 -0.0419399887     4     9     2     1
 0.0025539905     4     9     2     3
 0.0013312009     4     9     2     6
 0.0016918240     4     9     3     2
 -0.0016729000     4     9     3     4
 0.0001573719     4     9     3    11
 -0.0232759912     4     9     5     7
 0.0025954557     4     9     6     2
 0.0102647014     4     9     6     4
 0.0031215496     4     9     6    11
 -0.0182718978     4     9     7     5
 0.0119094808     4     9     8    10
 -0.0006561178     4     9     9     2
 -0.2022901001     4     9     9     4
 -0.0000000001     4     9     9     6
 -0.0035193525     4     9     9    11
 0.0124100396     4     9    10     8
 -0.0000000003     4     9    10    10
 -0.0004300221     4     9    11     1
 -0.0236957597     4     9    11     3
 0.0306081213     4     9    11     6
 0.0000000003     4     9    11    11
 0.0015468952     4    10     1     8
 0.0137268527     4    10     3     8
 0.0062509046     4    10     6     8