&FCI NORB= 16,NELEC= 10,MS2=0,
 ORBSYM=1,1,1,1,1,1,1,1,1,1,1,1,1,1,1,1
 ISYM=1,
&END
 0.9856491171     1     1     2     2
 -0.0000000005     1     1     2     3
 0.0674963825     1     1     2     4
 0.1330664206     1     1     2     6
 -0.0000000094     1     1     2     7
 -0.0000000859     1     1     2     8
 0.0761320205     1     1     2     9
 0.0801266751     1     1     2    10
 -0.0000000039     1     1     2    12
 0.0863322996     1     1     2    13
 0.1757101208     1     1     2    16
 -0.0000000005     1     1     3     2
 0.8618297845     1     1     3     3
 -0.0000000132     1     1     3     4
 -0.0000000166     1     1     3     6
 -0.1548439867     1     1     3     7
 0.0875388371     1     1     3     8
 0.0000000489     1     1     3     9
 0.0000000265     1     1     3    10
 0.2383442758     1     1     3    12
 0.0000000502     1     1     3    13
 -0.0000000163     1     1     3    16
 0.0674963825     1     1     4     2
 -0.0000000132     1     1     4     3
 0.9519252532     1     1     4     4
 -0.0733733156     1     1     4     6
 -0.0000000093     1     1     4     7
 0.0000000057     1     1     4     8
 0.0870621305     1     1     4     9
 -0.2268985744     1     1     4    10
 0.0000000209     1     1     4    12
 -0.0510992553     1     1     4    13
 0.1253999356     1     1     4    16
 1.0004010394     1     1     5     5
 -0.3047311126     1     1     5    11
 -0.0000000342     1     1     5    14
 0.0332884704     1     1     5    15
 0.1330664206     1     1     6     2
 -0.0000000166     1     1     6     3
 -0.0733733156     1     1     6     4
 0.3188286511     1     1     6     6
 0.0000000037     1     1     6     7
 -0.0000000764     1     1     6     8
 0.0410567023     1     1     6     9
 0.1073442391     1     1     6    10
 -0.0000000224     1     1     6    12
 0.0690706192     1     1     6    13
 0.0832591914     1     1     6    16
 -0.0000000094     1     1     7     2
 -0.1548439867     1     1     7     3
 -0.0000000093     1     1     7     4
 0.0000000037     1     1     7     6
 0.2853563054     1     1     7     7
 -0.0693061974     1     1     7     8
 -0.0000000474     1     1     7     9
 -0.0000000160     1     1     7    10
 -0.1486003493     1     1     7    12
 -0.0000000343     1     1     7    13
 -0.0000000032     1     1     7    16
 -0.0000000859     1     1     8     2
 0.0875388371     1     1     8     3
 0.0000000057     1     1     8     4
 -0.0000000764     1     1     8     6
 -0.0693061974     1     1     8     7
 0.3904941156     1     1     8     8
 0.0000000108     1     1     8     9
 -0.0000000289     1     1     8    10
 0.0805031152     1     1     8    12
 0.0000000036     1     1     8    13
 -0.0000000380     1     1     8    16
 0.0761320205     1     1     9     2
 0.0000000489     1     1     9     3
 0.0870621305     1     1     9     4
 0.0410567023     1     1     9     6
 -0.0000000474     1     1     9     7
 0.0000000108     1     1     9     8
 0.3709796364     1     1     9     9
 0.0019435180     1     1     9    10
 0.0000000603     1     1     9    12
 -0.0023806736     1     1     9    13
 0.0590192013     1     1     9    16
 0.0801266751     1     1    10     2
 0.0000000265     1     1    10     3
 -0.2268985744     1     1    10     4
 0.1073442391     1     1    10     6
 -0.0000000160     1     1    10     7
 -0.0000000289     1     1    10     8
 0.0019435180     1     1    10     9
 0.4686774346     1     1    10    10
 0.0000000114     1     1    10    12
 0.0511598912     1     1    10    13
 -0.0365624044     1     1    10    16
 -0.3047311126     1     1    11     5
 0.5418425032     1     1    11    11
 0.0000000216     1     1    11    14
 -0.0320697097     1     1    11    15
 -0.0000000039     1     1    12     2
 0.2383442758     1     1    12     3
 0.0000000209     1     1    12     4
 -0.0000000224     1     1    12     6
 -0.1486003493     1     1    12     7
 0.0805031152     1     1    12     8
 0.0000000603     1     1    12     9
 0.0000000114     1     1    12    10
 0.4762735163     1     1    12    12
 0.0000000224     1     1    12    13
 -0.0000000072     1     1    12    16
 0.0863322996     1     1    13     2
 0.0000000502     1     1    13     3
 -0.0510992553     1     1    13     4
 0.0690706192     1     1    13     6
 -0.0000000343     1     1    13     7
 0.0000000036     1     1    13     8
 -0.0023806736     1     1    13     9
 0.0511598912     1     1    13    10
 0.0000000224     1     1    13    12
 0.3792394454     1     1    13    13
 0.0185078725     1     1    13    16
 -0.0000000342     1     1    14     5
 0.0000000216     1     1    14    11
 0.3606237658     1     1    14    14
 -0.0000000058     1     1    14    15
 0.0332884704     1     1    15     5
 -0.0320697097     1     1    15    11
 -0.0000000058     1     1    15    14
 0.3609513606     1     1    15    15
 0.1757101208     1     1    16     2
 -0.0000000163     1     1    16     3
 0.1253999356     1     1    16     4
 0.0832591914     1     1    16     6
 -0.0000000032     1     1    16     7
 -0.0000000380     1     1    16     8
 0.0590192013     1     1    16     9
 -0.0365624044     1     1    16    10
 -0.0000000072     1     1    16    12
 0.0185078725     1     1    16    13
 0.5053472662     1     1    16    16
 -0.9856491171     1     2     2     1
 -0.0000000011     1     2     2     3
 0.0062285576     1     2     2     4
 -0.0012120114     1     2     2     6
 0.0000000004     1     2     2     7
 0.0011382067     1     2     2     9
 -0.0040362229     1     2     2    10
 -0.0000000005     1     2     2    12
 -0.0014010219     1     2     2    13
 0.0016081729     1     2     2    16
 0.0000000005     1     2     3     1
 -0.0306324718     1     2     3     3
 0.0000000009     1     2     3     4
 0.0000000010     1     2     3     6
 0.0111327653     1     2     3     7
 -0.0092408493     1     2     3     8
 -0.0000000058     1     2     3     9
 -0.0000000030     1     2     3    10
 -0.0212209370     1     2     3    12
 -0.0000000047     1     2     3    13
 0.0000000014     1     2     3    16
 -0.0674963825     1     2     4     1
 0.0000000008     1     2     4     3
 -0.0362878691     1     2     4     4
 0.0065999216     1     2     4     6
 0.0000000005     1     2     4     7
 -0.0000000023     1     2     4     8
 -0.0048194987     1     2     4     9
 0.0188935978     1     2     4    10
 -0.0000000020     1     2     4    12
 0.0064818545     1     2     4    13
 -0.0081776212     1     2     4    16
 -0.0412564603     1     2     5     5
 0.0247622273     1     2     5    11
 0.0000000030     1     2     5    14
 -0.0036257233     1     2     5    15
 -0.1330664206     1     2     6     1
 0.0000000006     1     2     6     3
 0.0063220860     1     2     6     4
 -0.0014602246     1     2     6     6
 -0.0000000005     1     2     6     7
 0.0000000010     1     2     6     8
 0.0007269439     1     2     6     9
 -0.0039677027     1     2     6    10
 0.0000000011     1     2     6    12
 -0.0014576839     1     2     6    13
 0.0012646739     1     2     6    16
 0.0000000094     1     2     7     1
 0.0084368770     1     2     7     3
 0.0000000003     1     2     7     4
 -0.0000000006     1     2     7     6
 -0.0036114852     1     2     7     7
 0.0029476361     1     2     7     8
 0.0000000019     1     2     7     9
 0.0000000006     1     2     7    10
 0.0071002967     1     2     7    12
 0.0000000015     1     2     7    13
 -0.0000000003     1     2     7    16
 0.0000000859     1     2     8     1
 -0.0063440699     1     2     8     3
 -0.0000000025     1     2     8     4
 0.0000000011     1     2     8     6
 0.0026243414     1     2     8     7
 -0.0022685272     1     2     8     8
 -0.0000000019     1     2     8     9
 0.0000000011     1     2     8    10
 -0.0048276926     1     2     8    12
 -0.0000000003     1     2     8    13
 -0.0000000001     1     2     8    16
 -0.0761320205     1     2     9     1
 -0.0000000040     1     2     9     3
 -0.0031374655     1     2     9     4
 0.0003420710     1     2     9     6
 0.0000000017     1     2     9     7
 -0.0000000016     1     2     9     8
 -0.0006238210     1     2     9     9
 0.0021365065     1     2     9    10
 -0.0000000031     1     2     9    12
 0.0003315949     1     2     9    13
 -0.0013721462     1     2     9    16
 -0.0801266751     1     2    10     1
 -0.0000000021     1     2    10     3
 0.0152519560     1     2    10     4
 -0.0032010836     1     2    10     6
 0.0000000005     1     2    10     7
 0.0000000005     1     2    10     8
 0.0027460014     1     2    10     9
 -0.0099270726     1     2    10    10
 -0.0000000004     1     2    10    12
 -0.0029630542     1     2    10    13
 0.0043864809     1     2    10    16
 0.0185450285     1     2    11     5
 -0.0139547335     1     2    11    11
 -0.0000000016     1     2    11    14
 0.0016384875     1     2    11    15
 0.0000000039     1     2    12     1
 -0.0146555676     1     2    12     3
 -0.0000000013     1     2    12     4
 0.0000000011     1     2    12     6
 0.0064877763     1     2    12     7
 -0.0049544417     1     2    12     8
 -0.0000000032     1     2    12     9
 -0.0000000005     1     2    12    10
 -0.0123719129     1     2    12    12
 -0.0000000023     1     2    12    13
 0.0000000005     1     2    12    16
 -0.0863322996     1     2    13     1
 -0.0000000033     1     2    13     3
 0.0050387542     1     2    13     4
 -0.0011310496     1     2    13     6
 0.0000000014     1     2    13     7
 -0.0000000006     1     2    13     8
 0.0005304571     1     2    13     9
 -0.0028490600     1     2    13    10
 -0.0000000024     1     2    13    12
 -0.0009617361     1     2    13    13
 0.0009751041     1     2    13    16
 0.0000000022     1     2    14     5
 -0.0000000015     1     2    14    11
 0.0002204357     1     2    14    14
 0.0000000001     1     2    14    15
 -0.0022056355     1     2    15     5
 0.0012231347     1     2    15    11
 0.0000000001     1     2    15    14
 -0.0001278991     1     2    15    15
 -0.1757101208     1     2    16     1
 0.0000000007     1     2    16     3
 -0.0045627075     1     2    16     4
 0.0005222158     1     2    16     6
 -0.0000000001     1     2    16     7
 0.0000000003     1     2    16     8
 -0.0011870152     1     2    16     9
 0.0028782272     1     2    16    10
 0.0000000003     1     2    16    12
 0.0005053759     1     2    16    13
 -0.0023673640     1     2    16    16
 0.0000000005     1     3     2     1
 0.0000000011     1     3     2     2
 0.0000000002     1     3     2     4
 0.0000000003     1     3     2     6
 0.0020665149     1     3     2     7
 -0.0024505074     1     3     2     8
 -0.0000000016     1     3     2     9
 -0.0000000008     1     3     2    10
 -0.0054993630     1     3     2    12
 -0.0000000011     1     3     2    13
 0.0000000007     1     3     2    16
 -0.8618297845     1     3     3     1
 0.0306324718     1     3     3     2
 0.0095908308     1     3     3     4
 0.0042114949     1     3     3     6
 -0.0000000006     1     3     3     7
 -0.0000000011     1     3     3     8
 0.0018113660     1     3     3     9
 -0.0018007152     1     3     3    10
 -0.0000000002     1     3     3    12
 0.0045689163     1     3     3    13
 0.0110897177     1     3     3    16
 0.0000000132     1     3     4     1
 -0.0000000008     1     3     4     2
 0.0000000010     1     3     4     4
 -0.0000000006     1     3     4     6
 -0.0010773031     1     3     4     7
 0.0040676939     1     3     4     8
 0.0000000031     1     3     4     9
 0.0000000004     1     3     4    10
 0.0013728492     1     3     4    12
 0.0000000004     1     3     4    13
 -0.0000000001     1     3     4    16
 0.0000000015     1     3     5     5
 -0.0000000012     1     3     5    11
 0.0033092469     1     3     5    14
 -0.0000000003     1     3     5    15
 0.0000000166     1     3     6     1
 -0.0000000006     1     3     6     2
 -0.0000000004     1     3     6     4
 -0.0000000002     1     3     6     6
 -0.0019037866     1     3     6     7
 -0.0003282119     1     3     6     8
 -0.0000000006     1     3     6     9
 0.0017868192     1     3     6    12
 0.0000000002     1     3     6    13
 -0.0000000003     1     3     6    16
 0.1548439867     1     3     7     1
 -0.0084368770     1     3     7     2
 -0.0026284410     1     3     7     4
 -0.0037812541     1     3     7     6
 0.0000000004     1     3     7     7
 0.0000000018     1     3     7     8
 -0.0018633882     1     3     7     9
 -0.0012141114     1     3     7    10
 -0.0000000002     1     3     7    12
 -0.0015047965     1     3     7    13
 -0.0038079545     1     3     7    16
 -0.0875388371     1     3     8     1
 0.0063440699     1     3     8     2
 0.0018028464     1     3     8     4
 0.0019736264     1     3     8     6
 0.0000000012     1     3     8     7
 -0.0000000032     1     3     8     8
 0.0007864373     1     3     8     9
 0.0041033465     1     3     8    10
 -0.0000000039     1     3     8    12
 0.0030912574     1     3     8    13
 0.0017412553     1     3     8    16
 -0.0000000489     1     3     9     1
 0.0000000040     1     3     9     2
 0.0000000011     1     3     9     4
 0.0000000011     1     3     9     6
 -0.0014664103     1     3     9     7
 0.0008782783     1     3     9     8
 0.0000000008     1     3     9     9
 0.0000000033     1     3     9    10
 0.0040730748     1     3     9    12
 0.0000000030     1     3     9    13
 0.0000000006     1     3     9    16
 -0.0000000265     1     3    10     1
 0.0000000021     1     3    10     2
 0.0000000001     1     3    10     4
 0.0000000008     1     3    10     6
 -0.0009238761     1     3    10     7
 0.0017630593     1     3    10     8
 0.0000000016     1     3    10     9
 0.0000000022     1     3    10    10
 0.0017683100     1     3    10    12
 0.0000000016     1     3    10    13
 0.0000000004     1     3    10    16
 -0.0000000005     1     3    11     5
 0.0009469069     1     3    11    14
 0.0000000002     1     3    11    15
 -0.2383442758     1     3    12     1
 0.0146555676     1     3    12     2
 0.0045863902     1     3    12     4
 0.0053827829     1     3    12     6
 -0.0000000007     1     3    12     7
 -0.0000000046     1     3    12     8
 0.0049016456     1     3    12     9
 0.0022700052     1     3    12    10
 0.0000000006     1     3    12    12
 0.0036341418     1     3    12    13
 0.0088125213     1     3    12    16
 -0.0000000502     1     3    13     1
 0.0000000033     1     3    13     2
 0.0000000010     1     3    13     4
 0.0000000013     1     3    13     6
 0.0004900848     1     3    13     7
 0.0008042231     1     3    13     8
 0.0000000017     1     3    13     9
 0.0000000011     1     3    13    10
 -0.0001664318     1     3    13    12
 0.0000000009     1     3    13    13
 0.0000000020     1     3    13    16
 -0.0002769333     1     3    14     5
 0.0032823634     1     3    14    11
 0.0000000003     1     3    14    14
 -0.0026835961     1     3    14    15
 -0.0000000001     1     3    15    11
 -0.0023840838     1     3    15    14
 0.0000000003     1     3    15    15
 0.0000000163     1     3    16     1
 -0.0000000007     1     3    16     2
 -0.0000000001     1     3    16     4
 -0.0000000002     1     3    16     6
 -0.0001373439     1     3    16     7
 -0.0005075680     1     3    16     8
 -0.0000000008     1     3    16     9
 -0.0000000005     1     3    16    10
 0.0016907275     1     3    16    12
 0.0000000003     1     3    16    13
 -0.0000000004     1     3    16    16
 -0.0674963825     1     4     2     1
 -0.0062285576     1     4     2     2
 -0.0000000002     1     4     2     3
 -0.0002065618     1     4     2     6
 0.0000000002     1     4     2     7
 0.0000000003     1     4     2     8
 -0.0014349967     1     4     2     9
 0.0025238990     1     4     2    10
 -0.0000000005     1     4     2    12
 0.0010728245     1     4     2    13
 -0.0032917309     1     4     2    16
 0.0000000132     1     4     3     1
 -0.0000000009     1     4     3     2
 -0.0095908308     1     4     3     3
 -0.0000000001     1     4     3     6
 0.0017181470     1     4     3     7
 0.0021879152     1     4     3     8
 0.0000000019     1     4     3     9
 0.0000000003     1     4     3    10
 -0.0034975046     1     4     3    12
 -0.0000000006     1     4     3    13
 -0.9519252532     1     4     4     1
 0.0362878691     1     4     4     2
 -0.0000000010     1     4     4     3
 0.0085399590     1     4     4     6
 -0.0000000003     1     4     4     7
 -0.0000000065     1     4     4     8
 0.0050761831     1     4     4     9
 0.0087352432     1     4     4    10
 -0.0000000001     1     4     4    12
 0.0028990295     1     4     4    13
 0.0116799139     1     4     4    16
 -0.0128216831     1     4     5     5
 0.0071048047     1     4     5    11
 0.0000000011     1     4     5    14
 0.0025247818     1     4     5    15
 0.0733733156     1     4     6     1
 -0.0063220860     1     4     6     2
 0.0000000004     1     4     6     3
 -0.0033131405     1     4     6     6
 -0.0000000002     1     4     6     7
 0.0000000014     1     4     6     8
 -0.0002145036     1     4     6     9
 -0.0038206090     1     4     6    10
 0.0000000005     1     4     6    12
 -0.0016196364     1     4     6    13
 -0.0022923454     1     4     6    16
 0.0000000093     1     4     7     1
 -0.0000000003     1     4     7     2
 0.0026284410     1     4     7     3
 -0.0000000003     1     4     7     6
 -0.0020309355     1     4     7     7
 0.0009764933     1     4     7     8
 0.0000000005     1     4     7     9
 0.0000000002     1     4     7    10
 0.0023109414     1     4     7    12
 0.0000000005     1     4     7    13
 -0.0000000002     1     4     7    16
 -0.0000000057     1     4     8     1
 0.0000000025     1     4     8     2
 -0.0018028464     1     4     8     3
 0.0000000009     1     4     8     6
 0.0022002279     1     4     8     7
 -0.0013321660     1     4     8     8
 0.0000000011     1     4     8     9
 0.0000000022     1     4     8    10
 -0.0051949477     1     4     8    12
 -0.0000000009     1     4     8    13
 0.0000000008     1     4     8    16
 -0.0870621305     1     4     9     1
 0.0031374655     1     4     9     2
 -0.0000000011     1     4     9     3
 0.0018572510     1     4     9     6
 0.0000000014     1     4     9     7
 -0.0000000002     1     4     9     8
 -0.0005810910     1     4     9     9
 -0.0007663151     1     4     9    10
 -0.0000000042     1     4     9    12
 0.0017637106     1     4     9    13
 0.0020062128     1     4     9    16
 0.2268985744     1     4    10     1
 -0.0152519560     1     4    10     2
 -0.0000000001     1     4    10     3
 -0.0066986960     1     4    10     6
 0.0000000008     1     4    10     7
 0.0000000051     1     4    10     8
 -0.0046236289     1     4    10     9
 -0.0050242818     1     4    10    10
 -0.0000000008     1     4    10    12
 -0.0047258481     1     4    10    13
 -0.0076988008     1     4    10    16
 0.0058591466     1     4    11     5
 -0.0044062995     1     4    11    11
 -0.0000000002     1     4    11    14
 0.0014181429     1     4    11    15
 -0.0000000209     1     4    12     1
 0.0000000013     1     4    12     2
 -0.0045863902     1     4    12     3
 0.0000000009     1     4    12     6
 0.0020708585     1     4    12     7
 -0.0026875331     1     4    12     8
 -0.0000000019     1     4    12     9
 0.0000000003     1     4    12    10
 -0.0037572425     1     4    12    12
 -0.0000000001     1     4    12    13
 0.0000000007     1     4    12    16
 0.0510992553     1     4    13     1
 -0.0050387542     1     4    13     2
 -0.0000000010     1     4    13     3
 -0.0026692559     1     4    13     6
 0.0000000006     1     4    13     7
 0.0000000006     1     4    13     8
 0.0004934299     1     4    13     9
 -0.0048679790     1     4    13    10
 -0.0000000005     1     4    13    12
 -0.0031369589     1     4    13    13
 -0.0009029625     1     4    13    16
 0.0000000006     1     4    14     5
 0.0000000001     1     4    14    11
 -0.0022977486     1     4    14    14
 -0.0008579268     1     4    15     5
 0.0037178650     1     4    15    11
 0.0000000004     1     4    15    14
 -0.0015127329     1     4    15    15
 -0.1253999356     1     4    16     1
 0.0045627075     1     4    16     2
 0.0000000001     1     4    16     3
 0.0018035227     1     4    16     6
 -0.0000000001     1     4    16     7
 -0.0000000015     1     4    16     8
 0.0016080381     1     4    16     9
 0.0004803258     1     4    16    10
 0.0018688042     1     4    16    13
 0.0025524565     1     4    16    16
 0.0048369247     1     5     2    11
 0.0000000007     1     5     2    14
 -0.0012697682     1     5     2    15
 -0.0000000006     1     5     3    11
 0.0037334561     1     5     3    14
 -0.0000000004     1     5     3    15
 0.0008650295     1     5     4    11
 0.0000000004     1     5     4    14
 0.0035389905     1     5     4    15
 -1.0004010394     1     5     5     1
 0.0412564603     1     5     5     2
 -0.0000000015     1     5     5     3
 0.0128216831     1     5     5     4
 0.0083172393     1     5     5     6
 -0.0000000003     1     5     5     7
 -0.0000000094     1     5     5     8
 0.0099150285     1     5     5     9
 0.0040677792     1     5     5    10
 -0.0000000007     1     5     5    12
 0.0073169584     1     5     5    13
 0.0116903803     1     5     5    16
 -0.0021096603     1     5     6    11
 -0.0000000002     1     5     6    14
 -0.0001019629     1     5     6    15
 0.0000000001     1     5     7    11
 0.0004017905     1     5     7    14
 -0.0000000016     1     5     8    11
 0.0004369440     1     5     8    14
 -0.0000000003     1     5     8    15
 0.0018415343     1     5     9    11
 0.0000000006     1     5     9    14
 0.0002296250     1     5     9    15
 0.0004309736     1     5    10    11
 0.0000000001     1     5    10    14
 0.0004267592     1     5    10    15
 0.3047311126     1     5    11     1
 -0.0185450285     1     5    11     2
 0.0000000005     1     5    11     3
 -0.0058591466     1     5    11     4
 -0.0073189132     1     5    11     6
 0.0000000002     1     5    11     7
 0.0000000042     1     5    11     8
 -0.0041940013     1     5    11     9
 -0.0024518119     1     5    11    10
 0.0000000007     1     5    11    12
 -0.0041796292     1     5    11    13
 -0.0127141874     1     5    11    16
 0.0000092764     1     5    12    14
 0.0000000001     1     5    12    15
 0.0004400291     1     5    13    11
 0.0000000001     1     5    13    14
 -0.0004913664     1     5    13    15
 0.0000000342     1     5    14     1
 -0.0000000022     1     5    14     2
 0.0002769333     1     5    14     3
 -0.0000000006     1     5    14     4
 -0.0000000007     1     5    14     6
 0.0016535645     1     5    14     7
 -0.0005213285     1     5    14     8
 -0.0000000007     1     5    14     9
 -0.0000000003     1     5    14    10
 -0.0023532010     1     5    14    12
 -0.0000000010     1     5    14    13
 -0.0000000015     1     5    14    16
 -0.0332884704     1     5    15     1
 0.0022056355     1     5    15     2
 0.0008579268     1     5    15     4
 0.0013404745     1     5    15     6
 -0.0000000001     1     5    15     7
 -0.0000000013     1     5    15     8
 0.0005584371     1     5    15     9
 0.0028079238     1     5    15    10
 0.0000000001     1     5    15    12
 0.0007712220     1     5    15    13
 -0.0003990152     1     5    15    16
 -0.0058381935     1     5    16    11
 -0.0000000007     1     5    16    14
 -0.0006325467     1     5    16    15
 -0.1330664206     1     6     2     1
 0.0012120114     1     6     2     2
 -0.0000000003     1     6     2     3
 0.0002065618     1     6     2     4
 0.0000000001     1     6     2     7
 -0.0000000001     1     6     2     8
 0.0003754997     1     6     2     9
 -0.0007822134     1     6     2    10
 0.0000000001     1     6     2    12
 -0.0003403487     1     6     2    13
 0.0006875353     1     6     2    16
 0.0000000166     1     6     3     1
 -0.0000000010     1     6     3     2
 -0.0042114949     1     6     3     3
 0.0000000001     1     6     3     4
 0.0018795964     1     6     3     7
 -0.0023267267     1     6     3     8
 -0.0000000015     1     6     3     9
 -0.0000000007     1     6     3    10
 -0.0036268860     1     6     3    12
 -0.0000000010     1     6     3    13
 -0.0000000001     1     6     3    16
 0.0733733156     1     6     4     1
 -0.0065999216     1     6     4     2
 0.0000000006     1     6     4     3
 -0.0085399590     1     6     4     4
 0.0000000001     1     6     4     7
 0.0000000005     1     6     4     8
 -0.0020797693     1     6     4     9
 0.0029065458     1     6     4    10
 -0.0000000004     1     6     4    12
 0.0010591073     1     6     4    13
 -0.0041356999     1     6     4    16
 -0.0083172393     1     6     5     5
 0.0051881563     1     6     5    11
 0.0000000004     1     6     5    14
 -0.0014447011     1     6     5    15
 -0.3188286511     1     6     6     1
 0.0014602246     1     6     6     2
 0.0000000002     1     6     6     3
 0.0033131405     1     6     6     4
 -0.0000000001     1     6     6     7
 0.0000000001     1     6     6     8
 0.0004624830     1     6     6     9
 -0.0010788968     1     6     6    10
 0.0000000004     1     6     6    12
 -0.0002940510     1     6     6    13
 0.0011407700     1     6     6    16
 -0.0000000037     1     6     7     1
 0.0000000006     1     6     7     2
 0.0037812541     1     6     7     3
 0.0000000003     1     6     7     4
 -0.0012497866     1     6     7     7
 0.0011056297     1     6     7     8
 0.0000000008     1     6     7     9
 0.0000000002     1     6     7    10
 0.0026926062     1     6     7    12
 0.0000000006     1     6     7    13
 0.0000000764     1     6     8     1
 -0.0000000011     1     6     8     2
 -0.0019736264     1     6     8     3
 -0.0000000009     1     6     8     4
 0.0004603142     1     6     8     7
 -0.0004426373     1     6     8     8
 -0.0000000009     1     6     8     9
 -0.0000000004     1     6     8    10
 -0.0006525264     1     6     8    12
 -0.0000000002     1     6     8    13
 -0.0000000003     1     6     8    16
 -0.0410567023     1     6     9     1
 -0.0003420710     1     6     9     2
 -0.0000000011     1     6     9     3
 -0.0018572510     1     6     9     4
 0.0000000002     1     6     9     7
 -0.0000000006     1     6     9     8
 -0.0001136370     1     6     9     9
 0.0012729972     1     6     9    10
 -0.0000000003     1     6     9    12
 -0.0000373963     1     6     9    13
 -0.0008687725     1     6     9    16
 -0.1073442391     1     6    10     1
 0.0032010836     1     6    10     2
 -0.0000000008     1     6    10     3
 0.0066986960     1     6    10     4
 -0.0000000008     1     6    10     8
 0.0019018240     1     6    10     9
 -0.0028553890     1     6    10    10
 0.0000000001     1     6    10    12
 -0.0002769431     1     6    10    13
 0.0031088404     1     6    10    16
 0.0073189132     1     6    11     5
 -0.0047190379     1     6    11    11
 -0.0000000006     1     6    11    14
 0.0004089009     1     6    11    15
 0.0000000224     1     6    12     1
 -0.0000000011     1     6    12     2
 -0.0053827829     1     6    12     3
 -0.0000000009     1     6    12     4
 0.0020657981     1     6    12     7
 -0.0013912180     1     6    12     8
 -0.0000000011     1     6    12     9
 -0.0000000002     1     6    12    10
 -0.0039655776     1     6    12    12
 -0.0000000010     1     6    12    13
 -0.0000000004     1     6    12    16
 -0.0690706192     1     6    13     1
 0.0011310496     1     6    13     2
 -0.0000000013     1     6    13     3
 0.0026692559     1     6    13     4
 0.0000000003     1     6    13     7
 -0.0000000004     1     6    13     8
 0.0002257881     1     6    13     9
 -0.0004851063     1     6    13    10
 -0.0000000008     1     6    13    12
 0.0001731476     1     6    13    13
 0.0007199527     1     6    13    16
 0.0000000007     1     6    14     5
 -0.0000000006     1     6    14    11
 0.0005134227     1     6    14    14
 0.0000000002     1     6    14    15
 -0.0013404745     1     6    15     5
 0.0001758225     1     6    15    11
 0.0000000001     1     6    15    14
 0.0002092434     1     6    15    15
 -0.0832591914     1     6    16     1
 -0.0005222158     1     6    16     2
 0.0000000002     1     6    16     3
 -0.0018035227     1     6    16     4
 -0.0000000001     1     6    16     7
 0.0000000003     1     6    16     8
 -0.0006238098     1     6    16     9
 0.0010038415     1     6    16    10
 -0.0000645953     1     6    16    13
 -0.0010447195     1     6    16    16
 0.0000000094     1     7     2     1
 -0.0000000004     1     7     2     2
 -0.0020665149     1     7     2     3
 -0.0000000002     1     7     2     4
 -0.0000000001     1     7     2     6
 0.0003200265     1     7     2     8
 0.0000000002     1     7     2     9
 0.0000000001     1     7     2    10
 0.0005960157     1     7     2    12
 0.0000000001     1     7     2    13
 -0.0000000002     1     7     2    16
 0.1548439867     1     7     3     1
 -0.0111327653     1     7     3     2
 0.0000000006     1     7     3     3
 -0.0017181470     1     7     3     4
 -0.0018795964     1     7     3     6
 0.0000000006     1     7     3     8
 -0.0003943823     1     7     3     9
 -0.0002803536     1     7     3    10
 0.0000000005     1     7     3    12
 -0.0019975763     1     7     3    13
 -0.0036899760     1     7     3    16
 0.0000000093     1     7     4     1
 -0.0000000005     1     7     4     2