&FCI NORB= 14,NELEC= 10,MS2=0,
 ORBSYM=1,1,1,1,1,1,1,1,1,1,1,1,1,1
 ISYM=1,
&END
 0.9850285165     1     1     2     2
 0.0671013613     1     1     2     4
 -0.1059138226     1     1     2     6
 -0.0532154603     1     1     2     8
 -0.1099315034     1     1     2    11
 0.0535414119     1     1     2    13
 0.8719931875     1     1     3     3
 0.1165102124     1     1     3     7
 -0.0450509370     1     1     3     9
 -0.2219262015     1     1     3    12
 0.0671013613     1     1     4     2
 0.9521892340     1     1     4     4
 0.0592891943     1     1     4     6
 -0.1221666294     1     1     4     8
 0.1592198807     1     1     4    11
 -0.0569656543     1     1     4    13
 0.9977506405     1     1     5     5
 -0.2212831172     1     1     5    10
 -0.1059138226     1     1     6     2
 0.0592891943     1     1     6     4
 0.2794166082     1     1     6     6
 0.0146713651     1     1     6     8
 0.1063402762     1     1     6    11
 -0.0476745775     1     1     6    13
 0.1165102124     1     1     7     3
 0.2408323502     1     1     7     7
 -0.0303519333     1     1     7     9
 -0.1281021604     1     1     7    12
 -0.0532154603     1     1     8     2
 -0.1221666294     1     1     8     4
 0.0146713651     1     1     8     6
 0.3084776426     1     1     8     8
 -0.0208806843     1     1     8    11
 0.0203612125     1     1     8    13
 -0.0450509370     1     1     9     3
 -0.0303519333     1     1     9     7
 0.3135934668     1     1     9     9
 0.0676032925     1     1     9    12
 -0.2212831172     1     1    10     5
 0.3949412786     1     1    10    10
 -0.1099315034     1     1    11     2
 0.1592198807     1     1    11     4
 0.1063402762     1     1    11     6
 -0.0208806843     1     1    11     8
 0.4224249231     1     1    11    11
 -0.0396037046     1     1    11    13
 -0.2219262015     1     1    12     3
 -0.1281021604     1     1    12     7
 0.0676032925     1     1    12     9
 0.4505001019     1     1    12    12
 0.0535414119     1     1    13     2
 -0.0569656543     1     1    13     4
 -0.0476745775     1     1    13     6
 0.0203612125     1     1    13     8
 -0.0396037046     1     1    13    11
 0.3355143445     1     1    13    13
 0.3243180785     1     1    14    14
 -0.9850285165     1     2     2     1
 -0.0069749155     1     2     2     4
 -0.0010180046     1     2     2     6
 0.0020850395     1     2     2     8
 -0.0033716294     1     2     2    11
 0.0014292071     1     2     2    13
 0.0310046728     1     2     3     3
 0.0084523577     1     2     3     7
 -0.0051970614     1     2     3     9
 -0.0198659905     1     2     3    12
 -0.0671013613     1     2     4     1
 0.0359252147     1     2     4     4
 0.0054455480     1     2     4     6
 -0.0077551744     1     2     4     8
 0.0143975040     1     2     4    11
 -0.0060781606     1     2     4    13
 0.0407380308     1     2     5     5
 -0.0169045795     1     2     5    10
 0.1059138226     1     2     6     1
 0.0052539363     1     2     6     4
 0.0010146855     1     2     6     6
 -0.0011869941     1     2     6     8
 0.0027668162     1     2     6    11
 -0.0011244301     1     2     6    13
 0.0063091272     1     2     7     3
 0.0021566185     1     2     7     7
 -0.0012287742     1     2     7     9
 -0.0052611079     1     2     7    12
 0.0532154603     1     2     8     1
 -0.0056580342     1     2     8     4
 -0.0007850497     1     2     8     6
 0.0020861213     1     2     8     8
 -0.0030472904     1     2     8    11
 0.0009526017     1     2     8    13
 -0.0034964918     1     2     9     3
 -0.0010751141     1     2     9     7
 0.0008490360     1     2     9     9
 0.0025012717     1     2     9    12
 -0.0130029945     1     2    10     5
 0.0073292987     1     2    10    10
 0.1099315034     1     2    11     1
 0.0119904824     1     2    11     4
 0.0023096294     1     2    11     6
 -0.0035516743     1     2    11     8
 0.0062397668     1     2    11    11
 -0.0024493651     1     2    11    13
 -0.0136905295     1     2    12     3
 -0.0048588873     1     2    12     7
 0.0026253900     1     2    12     9
 0.0111570542     1     2    12    12
 -0.0535414119     1     2    13     1
 -0.0046566434     1     2    13     4
 -0.0008430029     1     2    13     6
 0.0010475807     1     2    13     8
 -0.0022176598     1     2    13    11
 0.0006975798     1     2    13    13
 -0.0002521245     1     2    14    14
 0.0015810928     1     3     2     7
 -0.0014015837     1     3     2     9
 -0.0049782047     1     3     2    12
 -0.8719931875     1     3     3     1
 -0.0310046728     1     3     3     2
 -0.0105465705     1     3     3     4
 0.0035516081     1     3     3     6
 0.0036277678     1     3     3     8
 0.0001942958     1     3     3    11
 -0.0033188036     1     3     3    13
 -0.0007182944     1     3     4     7
 0.0028938325     1     3     4     9
 0.0021792143     1     3     4    12
 -0.0027029856     1     3     5    14
 0.0015124193     1     3     6     7
 0.0003261273     1     3     6     9
 -0.0013026504     1     3     6    12
 -0.1165102124     1     3     7     1
 -0.0063091272     1     3     7     2
 -0.0022455923     1     3     7     4
 0.0026916908     1     3     7     6
 0.0014583818     1     3     7     8
 0.0016348884     1     3     7    11
 -0.0004034197     1     3     7    13
 0.0007678029     1     3     8     7
 0.0007781813     1     3     8     9
 -0.0021562822     1     3     8    12
 0.0450509370     1     3     9     1
 0.0034964918     1     3     9     2
 0.0011544769     1     3     9     4
 -0.0008690278     1     3     9     6
 0.0009869090     1     3     9     8
 -0.0025737477     1     3     9    11
 0.0013894471     1     3     9    13
 -0.0007864132     1     3    10    14
 0.0010796096     1     3    11     7
 -0.0009746427     1     3    11     9
 -0.0027917360     1     3    11    12
 0.2219262015     1     3    12     1
 0.0136905295     1     3    12     2
 0.0047536610     1     3    12     4
 -0.0042878951     1     3    12     6
 -0.0035562508     1     3    12     8
 -0.0046442042     1     3    12    11
 0.0020388611     1     3    12    13
 0.0007431852     1     3    13     7
 0.0002416331     1     3    13     9
 -0.0008278515     1     3    13    12
 0.0001843358     1     3    14     5
 -0.0021193303     1     3    14    10
 -0.0671013613     1     4     2     1
 0.0069749155     1     4     2     2
 -0.0002598844     1     4     2     6
 -0.0015711352     1     4     2     8
 0.0013776738     1     4     2    11
 -0.0010102086     1     4     2    13
 0.0105465705     1     4     3     3
 0.0016556432     1     4     3     7
 0.0017245837     1     4     3     9
 -0.0028631038     1     4     3    12
 -0.9521892340     1     4     4     1
 -0.0359252147     1     4     4     2
 0.0069488494     1     4     4     6
 0.0023481854     1     4     4     8
 0.0095655277     1     4     4    11
 -0.0014465224     1     4     4    13
 0.0136611185     1     4     5     5
 -0.0055512992     1     4     5    10
 -0.0592891943     1     4     6     1
 -0.0052539363     1     4     6     2
 0.0026368249     1     4     6     6
 -0.0007003625     1     4     6     8
 0.0031641143     1     4     6    11
 -0.0012267151     1     4     6    13
 0.0022455923     1     4     7     3
 0.0014747931     1     4     7     7
 -0.0007950554     1     4     7     9
 -0.0017715036     1     4     7    12
 0.1221666294     1     4     8     1
 0.0056580342     1     4     8     2
 -0.0025641258     1     4     8     6
 -0.0018590689     1     4     8     8
 -0.0009286614     1     4     8    11
 0.0018240597     1     4     8    13
 -0.0011544769     1     4     9     3
 -0.0015221187     1     4     9     7
 -0.0001224108     1     4     9     9
 0.0035470812     1     4     9    12
 -0.0046013725     1     4    10     5
 0.0022820344     1     4    10    10
 -0.1592198807     1     4    11     1
 -0.0119904824     1     4    11     2
 0.0045150646     1     4    11     6
 0.0021029988     1     4    11     8
 0.0062392215     1     4    11    11
 -0.0025544406     1     4    11    13
 -0.0047536610     1     4    12     3
 -0.0019311791     1     4    12     7
 0.0019641069     1     4    12     9
 0.0048441999     1     4    12    12
 0.0569656543     1     4    13     1
 0.0046566434     1     4    13     2
 -0.0022258614     1     4    13     6
 0.0011662591     1     4    13     8
 -0.0036759401     1     4    13    11
 0.0029777176     1     4    13    13
 0.0018837744     1     4    14    14
 -0.0027499326     1     5     2    10
 -0.0029793439     1     5     3    14
 -0.0006669800     1     5     4    10
 -0.9977506405     1     5     5     1
 -0.0407380308     1     5     5     2
 -0.0136611185     1     5     5     4
 0.0064496937     1     5     5     6
 0.0072789461     1     5     5     8
 0.0076973537     1     5     5    11
 -0.0035278154     1     5     5    13
 -0.0021129083     1     5     6    10
 0.0005114988     1     5     7    14
 0.0001863148     1     5     8    10
 0.0000701857     1     5     9    14
 0.2212831172     1     5    10     1
 0.0130029945     1     5    10     2
 0.0046013725     1     5    10     4
 -0.0048649487     1     5    10     6
 -0.0028448436     1     5    10     8
 -0.0025622398     1     5    10    11
 0.0015379670     1     5    10    13
 0.0008408563     1     5    11    10
 -0.0003066818     1     5    12    14
 0.0000041917     1     5    13    10
 -0.0001843358     1     5    14     3
 0.0012924742     1     5    14     7
 -0.0003601420     1     5    14     9
 -0.0020950589     1     5    14    12
 0.1059138226     1     6     2     1
 0.0010180046     1     6     2     2
 0.0002598844     1     6     2     4
 -0.0004055100     1     6     2     8
 0.0004757548     1     6     2    11
 -0.0002907941     1     6     2    13
 -0.0035516081     1     6     3     3
 -0.0011562450     1     6     3     7
 0.0011935969     1     6     3     9
 0.0029749398     1     6     3    12
 -0.0592891943     1     6     4     1
 -0.0054455480     1     6     4     2
 -0.0069488494     1     6     4     4
 0.0018595455     1     6     4     8
 -0.0013738429     1     6     4    11
 0.0010022208     1     6     4    13
 -0.0064496937     1     6     5     5
 0.0027096952     1     6     5    10
 -0.2794166082     1     6     6     1
 -0.0010146855     1     6     6     2
 -0.0026368249     1     6     6     4
 0.0004740579     1     6     6     8
 -0.0006382870     1     6     6    11
 0.0002576879     1     6     6    13
 -0.0026916908     1     6     7     3
 -0.0006598817     1     6     7     7
 0.0003755363     1     6     7     9
 0.0018253366     1     6     7    12
 -0.0146713651     1     6     8     1
 0.0007850497     1     6     8     2
 0.0025641258     1     6     8     4
 -0.0009750927     1     6     8     8
 0.0010560586     1     6     8    11
 -0.0001338136     1     6     8    13
 0.0008690278     1     6     9     3
 0.0000530353     1     6     9     7
 -0.0001991709     1     6     9     9
 -0.0001123427     1     6     9    12
 0.0048649487     1     6    10     5
 -0.0022814757     1     6    10    10
 -0.1063402762     1     6    11     1
 -0.0023096294     1     6    11     2
 -0.0045150646     1     6    11     4
 0.0014817508     1     6    11     8
 -0.0009672602     1     6    11    11
 0.0003741465     1     6    11    13
 0.0042878951     1     6    12     3
 0.0012345250     1     6    12     7
 -0.0005306392     1     6    12     9
 -0.0027770201     1     6    12    12
 0.0476745775     1     6    13     1
 0.0008430029     1     6    13     2
 0.0022258614     1     6    13     4
 -0.0003022217     1     6    13     8
 0.0003625281     1     6    13    11
 0.0001623528     1     6    13    13
 0.0003736913     1     6    14    14
 -0.0015810928     1     7     2     3
 -0.0001511432     1     7     2     9
 -0.0003799262     1     7     2    12
 -0.1165102124     1     7     3     1
 -0.0084523577     1     7     3     2
 -0.0016556432     1     7     3     4
 0.0011562450     1     7     3     6
 0.0006947866     1     7     3     8
 0.0005060584     1     7     3    11
 -0.0011283859     1     7     3    13
 0.0007182944     1     7     4     3
 0.0007306993     1     7     4     9
 0.0001716549     1     7     4    12
 -0.0007787071     1     7     5    14
 -0.0015124193     1     7     6     3
 0.0003220979     1     7     6     9
 0.0005887801     1     7     6    12
 -0.2408323502     1     7     7     1
 -0.0021566185     1     7     7     2
 -0.0014747931     1     7     7     4
 0.0006598817     1     7     7     6
 0.0006011005     1     7     7     8
 0.0001861726     1     7     7    11
 -0.0000084533     1     7     7    13
 -0.0007678029     1     7     8     3
 0.0003392428     1     7     8     9
 -0.0001086290     1     7     8    12
 0.0303519333     1     7     9     1
 0.0010751141     1     7     9     2
 0.0015221187     1     7     9     4
 -0.0000530353     1     7     9     6
 0.0000073117     1     7     9     8
 -0.0002240513     1     7     9    11
 0.0001982936     1     7     9    13
 -0.0002214156     1     7    10    14
 -0.0010796096     1     7    11     3
 -0.0001081583     1     7    11     9
 -0.0000906348     1     7    11    12
 0.1281021604     1     7    12     1
 0.0048588873     1     7    12     2
 0.0019311791     1     7    12     4
 -0.0012345250     1     7    12     6
 -0.0011446731     1     7    12     8
 -0.0012460723     1     7    12    11
 0.0005594865     1     7    12    13
 -0.0007431852     1     7    13     3
 0.0001817350     1     7    13     9
 0.0002390818     1     7    13    12
 -0.0012924742     1     7    14     5
 0.0000034815     1     7    14    10
 0.0532154603     1     8     2     1
 -0.0020850395     1     8     2     2
 0.0015711352     1     8     2     4
 0.0004055100     1     8     2     6
 0.0005355276     1     8     2    11
 -0.0001141115     1     8     2    13
 -0.0036277678     1     8     3     3
 -0.0006947866     1     8     3     7
 -0.0001981786     1     8     3     9
 0.0014550653     1     8     3    12
 0.1221666294     1     8     4     1
 0.0077551744     1     8     4     2
 -0.0023481854     1     8     4     4
 -0.0018595455     1     8     4     6
 -0.0030370792     1     8     4    11
 0.0006568597     1     8     4    13
 -0.0072789461     1     8     5     5
 0.0030637594     1     8     5    10
 -0.0146713651     1     8     6     1
 0.0011869941     1     8     6     2
 0.0007003625     1     8     6     4
 -0.0004740579     1     8     6     6
 -0.0004269654     1     8     6    11
 0.0001689371     1     8     6    13
 -0.0014583818     1     8     7     3
 -0.0006011005     1     8     7     7
 0.0003315254     1     8     7     9
 0.0010359805     1     8     7    12
 -0.3084776426     1     8     8     1
 -0.0020861213     1     8     8     2
 0.0018590689     1     8     8     4
 0.0009750927     1     8     8     6
 0.0011731069     1     8     8    11
 -0.0007872298     1     8     8    13
 -0.0009869090     1     8     9     3
 -0.0000073117     1     8     9     7
 0.0002290025     1     8     9     9
 0.0000024173     1     8     9    12
 0.0028448436     1     8    10     5
 -0.0013232918     1     8    10    10
 0.0208806843     1     8    11     1
 0.0035516743     1     8    11     2
 -0.0021029988     1     8    11     4
 -0.0014817508     1     8    11     6
 -0.0024822647     1     8    11    11
 0.0010116679     1     8    11    13
 0.0035562508     1     8    12     3
 0.0011446731     1     8    12     7
 -0.0008363922     1     8    12     9
 -0.0027245492     1     8    12    12
 -0.0203612125     1     8    13     1
 -0.0010475807     1     8    13     2
 -0.0011662591     1     8    13     4
 0.0003022217     1     8    13     6
 0.0003367497     1     8    13    11
 -0.0004566309     1     8    13    13
 -0.0004024164     1     8    14    14
 0.0014015837     1     9     2     3
 0.0001511432     1     9     2     7
 -0.0001322079     1     9     2    12
 0.0450509370     1     9     3     1
 0.0051970614     1     9     3     2
 -0.0017245837     1     9     3     4
 -0.0011935969     1     9     3     6
 0.0001981786     1     9     3     8
 -0.0015956850     1     9     3    11
 0.0011353826     1     9     3    13
 -0.0028938325     1     9     4     3
 -0.0007306993     1     9     4     7
 0.0015789596     1     9     4    12
 0.0004083944     1     9     5    14
 -0.0003261273     1     9     6     3
 -0.0003220979     1     9     6     7
 0.0004194093     1     9     6    12
 0.0303519333     1     9     7     1
 0.0012287742     1     9     7     2
 0.0007950554     1     9     7     4
 -0.0003755363     1     9     7     6
 -0.0003315254     1     9     7     8
 -0.0001177513     1     9     7    11
 0.0000174813     1     9     7    13
 -0.0007781813     1     9     8     3
 -0.0003392428     1     9     8     7
 0.0008365471     1     9     8    12
 -0.3135934668     1     9     9     1
 -0.0008490360     1     9     9     2
 0.0001224108     1     9     9     4
 0.0001991709     1     9     9     6
 -0.0002290025     1     9     9     8
 0.0005725618     1     9     9    11
 -0.0002757036     1     9     9    13
 0.0001127563     1     9    10    14
 0.0009746427     1     9    11     3
 0.0001081583     1     9    11     7
 -0.0001922485     1     9    11    12
 -0.0676032925     1     9    12     1
 -0.0026253900     1     9    12     2
 -0.0019641069     1     9    12     4
 0.0005306392     1     9    12     6
 0.0008363922     1     9    12     8
 0.0002964403     1     9    12    11
 -0.0001616521     1     9    12    13
 -0.0002416331     1     9    13     3
 -0.0001817350     1     9    13     7
 0.0002768233     1     9    13    12
 0.0003601420     1     9    14     5
 0.0001517567     1     9    14    10
 0.0027499326     1    10     2     5
 0.0013163813     1    10     3    14
 0.0006669800     1    10     4     5
 0.2212831172     1    10     5     1
 0.0169045795     1    10     5     2
 0.0055512992     1    10     5     4
 -0.0027096952     1    10     5     6
 -0.0030637594     1    10     5     8
 -0.0033090304     1    10     5    11
 0.0014920605     1    10     5    13
 0.0021129083     1    10     6     5
 -0.0002230529     1    10     7    14
 -0.0001863148     1    10     8     5
 -0.0000385717     1    10     9    14
 -0.3949412786     1    10    10     1
 -0.0073292987     1    10    10     2
 -0.0022820344     1    10    10     4
 0.0022814757     1    10    10     6
 0.0013232918     1    10    10     8
 0.0013216183     1    10    10    11
 -0.0007644905     1    10    10    13
 -0.0008408563     1    10    11     5
 0.0001352375     1    10    12    14
 -0.0000041917     1    10    13     5
 0.0021193303     1    10    14     3
 -0.0000034815     1    10    14     7
 -0.0001517567     1    10    14     9
 -0.0003597188     1    10    14    12
 0.1099315034     1    11     2     1
 0.0033716294     1    11     2     2
 -0.0013776738     1    11     2     4
 -0.0004757548     1    11     2     6
 -0.0005355276     1    11     2     8
 -0.0002287648     1    11     2    13
 -0.0001942958     1    11     3     3
 -0.0005060584     1    11     3     7
 0.0015956850     1    11     3     9
 0.0017911698     1    11     3    12
 -0.1592198807     1    11     4     1
 -0.0143975040     1    11     4     2
 -0.0095655277     1    11     4     4
 0.0013738429     1    11     4     6
 0.0030370792     1    11     4     8
 0.0011051978     1    11     4    13
 -0.0076973537     1    11     5     5
 0.0033090304     1    11     5    10
 -0.1063402762     1    11     6     1
 -0.0027668162     1    11     6     2
 -0.0031641143     1    11     6     4
 0.0006382870     1    11     6     6
 0.0004269654     1    11     6     8
 0.0000119274     1    11     6    13
 -0.0016348884     1    11     7     3
 -0.0001861726     1    11     7     7
 0.0001177513     1    11     7     9
 0.0011562970     1    11     7    12
 0.0208806843     1    11     8     1
 0.0030472904     1    11     8     2
 0.0009286614     1    11     8     4
 -0.0010560586     1    11     8     6
 -0.0011731069     1    11     8     8
 0.0006732401     1    11     8    13
 0.0025737477     1    11     9     3
 0.0002240513     1    11     9     7
 -0.0005725618     1    11     9     9
 -0.0004886992     1    11     9    12
 0.0025622398     1    11    10     5
 -0.0013216183     1    11    10    10
 -0.4224249231     1    11    11     1
 -0.0062397668     1    11    11     2
 -0.0062392215     1    11    11     4
 0.0009672602     1    11    11     6
 0.0024822647     1    11    11     8
 -0.0000390013     1    11    11    13
 0.0046442042     1    11    12     3
 0.0012460723     1    11    12     7
 -0.0002964403     1    11    12     9
 -0.0026963829     1    11    12    12
 0.0396037046     1    11    13     1
 0.0022176598     1    11    13     2
 0.0036759401     1    11    13     4
 -0.0003625281     1    11    13     6
 -0.0003367497     1    11    13     8
 0.0007031791     1    11    13    13
 0.0008675014     1    11    14    14
 0.0049782047     1    12     2     3
 0.0003799262     1    12     2     7
 0.0001322079     1    12     2     9
 0.2219262015     1    12     3     1
 0.0198659905     1    12     3     2
 0.0028631038     1    12     3     4
 -0.0029749398     1    12     3     6
 -0.0014550653     1    12     3     8
 -0.0017911698     1    12     3    11
 0.0028360787     1    12     3    13
 -0.0021792143     1    12     4     3
 -0.0001716549     1    12     4     7
 -0.0015789596     1    12     4     9
 0.0017712006     1    12     5    14
 0.0013026504     1    12     6     3
 -0.0005887801     1    12     6     7
 -0.0004194093     1    12     6     9
 0.1281021604     1    12     7     1
 0.0052611079     1    12     7     2
 0.0017715036     1    12     7     4
 -0.0018253366     1    12     7     6
 -0.0010359805     1    12     7     8
 -0.0011562970     1    12     7    11
 0.0003238571     1    12     7    13
 0.0021562822     1    12     8     3
 0.0001086290     1    12     8     7
 -0.0008365471     1    12     8     9
 -0.0676032925     1    12     9     1
 -0.0025012717     1    12     9     2
 -0.0035470812     1    12     9     4
 0.0001123427     1    12     9     6
 -0.0000024173     1    12     9     8
 0.0004886992     1    12     9    11
 -0.0004393287     1    12     9    13
 0.0004940020     1    12    10    14
 0.0027917360     1    12    11     3
 0.0000906348     1    12    11     7
 0.0001922485     1    12    11     9
 -0.4505001019     1    12    12     1
 -0.0111570542     1    12    12     2
 -0.0048441999     1    12    12     4
 0.0027770201     1    12    12     6
 0.0027245492     1    12    12     8
 0.0026963829     1    12    12    11
 -0.0012278428     1    12    12    13
 0.0008278515     1    12    13     3
 -0.0002390818     1    12    13     7
 -0.0002768233     1    12    13     9
 0.0020950589     1    12    14     5
 0.0003597188     1    12    14    10
 -0.0535414119     1    13     2     1
 -0.0014292071     1    13     2     2
 0.0010102086     1    13     2     4
 0.0002907941     1    13     2     6
 0.0001141115     1    13     2     8
 0.0002287648     1    13     2    11
 0.0033188036     1    13     3     3
 0.0011283859     1    13     3     7
 -0.0011353826     1    13     3     9
 -0.0028360787     1    13     3    12
 0.0569656543     1    13     4     1
 0.0060781606     1    13     4     2
 0.0014465224     1    13     4     4
 -0.0010022208     1    13     4     6
 -0.0006568597     1    13     4     8
 -0.0011051978     1    13     4    11
 0.0035278154     1    13     5     5
 -0.0014920605     1    13     5    10
 0.0476745775     1    13     6     1
 0.0011244301     1    13     6     2
 0.0012267151     1    13     6     4
 -0.0002576879     1    13     6     6
 -0.0001689371     1    13     6     8
 -0.0000119274     1    13     6    11
 0.0004034197     1    13     7     3
 0.0000084533     1    13     7     7
 -0.0000174813     1    13     7     9
 -0.0003238571     1    13     7    12
 -0.0203612125     1    13     8     1
 -0.0009526017     1    13     8     2
 -0.0018240597     1    13     8     4
 0.0001338136     1    13     8     6
 0.0007872298     1    13     8     8
 -0.0006732401     1    13     8    11
 -0.0013894471     1    13     9     3
 -0.0001982936     1    13     9     7
 0.0002757036     1    13     9     9
 0.0004393287     1    13     9    12
 -0.0015379670     1    13    10     5
 0.0007644905     1    13    10    10
 0.0396037046     1    13    11     1
 0.0024493651     1    13    11     2
 0.0025544406     1    13    11     4
 -0.0003741465     1    13    11     6
 -0.0010116679     1    13    11     8
 0.0000390013     1    13    11    11
 -0.0020388611     1    13    12     3
 -0.0005594865     1    13    12     7
 0.0001616521     1    13    12     9
 0.0012278428     1    13    12    12
 -0.3355143445     1    13    13     1
 -0.0006975798     1    13    13     2
 -0.0029777176     1    13    13     4
 -0.0001623528     1    13    13     6
 0.0004566309     1    13    13     8
 -0.0007031791     1    13    13    11
 -0.0003454823     1    13    14    14
 0.0029793439     1    14     3     5
 -0.0013163813     1    14     3    10
 0.0027029856     1    14     5     3
 0.0007787071     1    14     5     7
 -0.0004083944     1    14     5     9
 -0.0017712006     1    14     5    12
 -0.0005114988     1    14     7     5
 0.0002230529     1    14     7    10
 -0.0000701857     1    14     9     5
 0.0000385717     1    14     9    10
 0.0007864132     1    14    10     3
 0.0002214156     1    14    10     7
 -0.0001127563     1    14    10     9
 -0.0004940020     1    14    10    12
 0.0003066818     1    14    12     5
 -0.0001352375     1    14    12    10
 -0.3243180785     1    14    14     1
 0.0002521245     1    14    14     2
 -0.0018837744     1    14    14     4
 -0.0003736913     1    14    14     6
 0.0004024164     1    14    14     8
 -0.0008675014     1    14    14    11
 0.0003454823     1    14    14    13
 -0.9850285165     2     1     1     2
 -0.0671013613     2     1     1     4
 0.1059138226     2     1     1     6
 0.0532154603     2     1     1     8
 0.1099315034     2     1     1    11
 -0.0535414119     2     1     1    13
 0.0310046728     2     1     3     3
 0.0063091272     2     1     3     7
 -0.0034964918     2     1     3     9
 -0.0136905295     2     1     3    12
 -0.0069749155     2     1     4     2
 0.0359252147     2     1     4     4
 0.0052539363     2     1     4     6
 -0.0056580342     2     1     4     8
 0.0119904824     2     1     4    11
 -0.0046566434     2     1     4    13
 0.0407380308     2     1     5     5
 -0.0130029945     2     1     5    10
 -0.0010180046     2     1     6     2
 0.0054455480     2     1     6     4
 0.0010146855     2     1     6     6
 -0.0007850497     2     1     6     8
 0.0023096294     2     1     6    11
 -0.0008430029     2     1     6    13
 0.0084523577     2     1     7     3
 0.0021566185     2     1     7     7
 -0.0010751141     2     1     7     9
 -0.0048588873     2     1     7    12
 0.0020850395     2     1     8     2
 -0.0077551744     2     1     8     4
 -0.0011869941     2     1     8     6
 0.0020861213     2     1     8     8
 -0.0035516743     2     1     8    11
 0.0010475807     2     1     8    13
 -0.0051970614     2     1     9     3
 -0.0012287742     2     1     9     7
 0.0008490360     2     1     9     9
 0.0026253900     2     1     9    12
 -0.0169045795     2     1    10     5
 0.0073292987     2     1    10    10
 -0.0033716294     2     1    11     2
 0.0143975040     2     1    11     4
 0.0027668162     2     1    11     6
 -0.0030472904     2     1    11     8
 0.0062397668     2     1    11    11
 -0.0022176598     2     1    11    13
 -0.0198659905     2     1    12     3
 -0.0052611079     2     1    12     7
 0.0025012717     2     1    12     9
 0.0111570542     2     1    12    12
 0.0014292071     2     1    13     2
 -0.0060781606     2     1    13     4
 -0.0011244301     2     1    13     6
 0.0009526017     2     1    13     8
 -0.0024493651     2     1    13    11
 0.0006975798     2     1    13    13
 -0.0002521245     2     1    14    14
 0.9850285165     2     2     1     1
 0.0069749155     2     2     1     4
 0.0010180046     2     2     1     6
 -0.0020850395     2     2     1     8
 0.0033716294     2     2     1    11
 -0.0014292071     2     2     1    13
 0.5289054310     2     2     3     3
 0.0496970836     2     2     3     7
 -0.0080439317     2     2     3     9
 -0.0801585798     2     2     3    12
 0.0069749155     2     2     4     1
 0.5510560593     2     2     4     4
 0.0264846026     2     2     4     6
 -0.0525246612     2     2     4     8
 0.0629345176     2     2     4    11
 -0.0165818667     2     2     4    13
 0.5777161932     2     2     5     5
 -0.0934412803     2     2     5    10
 0.0010180046     2     2     6     1
 0.0264846026     2     2     6     4
 0.2546218935     2     2     6     6
 0.0067245852     2     2     6     8
 0.0672881974     2     2     6    11
 -0.0310455104     2     2     6    13
 0.0496970836     2     2     7     3
 0.2241122737     2     2     7     7
 -0.0222152800     2     2     7     9
 -0.0818829557     2     2     7    12
 -0.0020850395     2     2     8     1
 -0.0525246612     2     2     8     4
 0.0067245852     2     2     8     6
 0.2736867898     2     2     8     8
 -0.0015470607     2     2     8    11
 0.0218431336     2     2     8    13
 -0.0080439317     2     2     9     3
 -0.0222152800     2     2     9     7
 0.2969668018     2     2     9     9
 0.0470260335     2     2     9    12
 -0.0934412803     2     2    10     5
 0.3239611001     2     2    10    10
 0.0033716294     2     2    11     1
 0.0629345176     2     2    11     4