&FCI NORB= 11,NELEC= 10,MS2=0,
 ORBSYM=1,1,1,1,1,1,1,1,1,1,1
 ISYM=1,
&END
 0.9840454313     1     1     2     2
 0.0692491520     1     1     2     4
 -0.1430273030     1     1     2     6
 -0.1139223249     1     1     2     9
 0.0387848691     1     1     2    10
 0.8687299676     1     1     3     3
 0.1731107687     1     1     3     7
 0.1016733783     1     1     3     8
 0.0692491520     1     1     4     2
 0.9529661147     1     1     4     4
 0.0762650526     1     1     4     6
 0.0608991760     1     1     4     9
 -0.2589267082     1     1     4    10
 1.0035369096     1     1     5     5
 -0.3344919957     1     1     5    11
 -0.1430273030     1     1     6     2
 0.0762650526     1     1     6     4
 0.3477869902     1     1     6     6
 0.1071906762     1     1     6     9
 -0.0898947692     1     1     6    10
 0.1731107687     1     1     7     3
 0.3252939738     1     1     7     7
 0.0988050436     1     1     7     8
 0.1016733783     1     1     8     3
 0.0988050436     1     1     8     7
 0.4543137811     1     1     8     8
 -0.1139223249     1     1     9     2
 0.0608991760     1     1     9     4
 0.1071906762     1     1     9     6
 0.4543845189     1     1     9     9
 -0.0560506165     1     1     9    10
 0.0387848691     1     1    10     2
 -0.2589267082     1     1    10     4
 -0.0898947692     1     1    10     6
 -0.0560506165     1     1    10     9
 0.5357658055     1     1    10    10
 -0.3344919957     1     1    11     5
 0.6615347355     1     1    11    11
 -0.9840454313     1     2     2     1
 -0.0069267147     1     2     2     4
 -0.0014767028     1     2     2     6
 -0.0018167871     1     2     2     9
 0.0056628820     1     2     2    10
 0.0307683952     1     2     3     3
 0.0130629194     1     2     3     7
 0.0115613219     1     2     3     8
 -0.0692491520     1     2     4     1
 0.0358913446     1     2     4     4
 0.0072107214     1     2     4     6
 0.0079038575     1     2     4     9
 -0.0222698043     1     2     4    10
 0.0411631985     1     2     5     5
 -0.0288759910     1     2     5    11
 0.1430273030     1     2     6     1
 0.0071079765     1     2     6     4
 0.0018001545     1     2     6     6
 0.0021707349     1     2     6     9
 -0.0052279734     1     2     6    10
 0.0097167768     1     2     7     3
 0.0048952020     1     2     7     7
 0.0043229304     1     2     7     8
 0.0077310667     1     2     8     3
 0.0038441332     1     2     8     7
 0.0033724029     1     2     8     8
 0.1139223249     1     2     9     1
 0.0069588090     1     2     9     4
 0.0019125651     1     2     9     6
 0.0016956526     1     2     9     9
 -0.0053271099     1     2     9    10
 -0.0387848691     1     2    10     1
 -0.0168200071     1     2    10     4
 -0.0037311773     1     2    10     6
 -0.0043849079     1     2    10     9
 0.0134786391     1     2    10    10
 -0.0214052086     1     2    11     5
 0.0191697080     1     2    11    11
 0.0026379482     1     3     2     7
 0.0032691671     1     3     2     8
 -0.8687299676     1     3     3     1
 -0.0307683952     1     3     3     2
 -0.0105942633     1     3     3     4
 0.0045750564     1     3     3     6
 0.0002712409     1     3     3     9
 0.0025969196     1     3     3    10
 -0.0012973163     1     3     4     7
 -0.0050069767     1     3     4     8
 0.0021349990     1     3     6     7
 -0.0004336524     1     3     6     8
 -0.1731107687     1     3     7     1
 -0.0097167768     1     3     7     2
 -0.0034765342     1     3     7     4
 0.0045491006     1     3     7     6
 0.0025512648     1     3     7     9
 -0.0001651707     1     3     7    10
 -0.1016733783     1     3     8     1
 -0.0077310667     1     3     8     2
 -0.0024988341     1     3     8     4
 0.0027346513     1     3     8     6
 0.0046280256     1     3     8     9
 -0.0038482316     1     3     8    10
 0.0019733721     1     3     9     7
 0.0028935204     1     3     9     8
 0.0002017989     1     3    10     7
 -0.0004987087     1     3    10     8
 -0.0692491520     1     4     2     1
 0.0069267147     1     4     2     2
 -0.0003884238     1     4     2     6
 0.0004942477     1     4     2     9
 -0.0042050239     1     4     2    10
 0.0105942633     1     4     3     3
 0.0023363634     1     4     3     7
 -0.0023827201     1     4     3     8
 -0.9529661147     1     4     4     1
 -0.0358913446     1     4     4     2
 0.0092193688     1     4     4     6
 0.0096871453     1     4     4     9
 -0.0065471214     1     4     4    10
 0.0138662199     1     4     5     5
 -0.0091789641     1     4     5    11
 -0.0762650526     1     4     6     1
 -0.0071079765     1     4     6     2
 0.0041172137     1     4     6     6
 0.0028995649     1     4     6     9
 -0.0037990163     1     4     6    10
 0.0034765342     1     4     7     3
 0.0027575830     1     4     7     7
 0.0011595747     1     4     7     8
 0.0024988341     1     4     8     3
 0.0028798343     1     4     8     7
 0.0028077475     1     4     8     8
 -0.0608991760     1     4     9     1
 -0.0069588090     1     4     9     2
 0.0029920719     1     4     9     6
 0.0060287553     1     4     9     9
 -0.0020123416     1     4     9    10
 0.2589267082     1     4    10     1
 0.0168200071     1     4    10     2
 -0.0082815410     1     4    10     6
 -0.0066939159     1     4    10     9
 0.0029281097     1     4    10    10
 -0.0076114731     1     4    11     5
 0.0065603457     1     4    11    11
 -0.0059302203     1     5     2    11
 -0.0011567413     1     5     4    11
 -1.0035369096     1     5     5     1
 -0.0411631985     1     5     5     2
 -0.0138662199     1     5     5     4
 0.0089183032     1     5     5     6
 0.0118874039     1     5     5     9
 0.0029256049     1     5     5    10
 -0.0023361225     1     5     6    11
 0.0023105850     1     5     9    11
 0.0016315484     1     5    10    11
 0.3344919957     1     5    11     1
 0.0214052086     1     5    11     2
 0.0076114731     1     5    11     4
 -0.0088997044     1     5    11     6
 -0.0065224311     1     5    11     9
 -0.0000557052     1     5    11    10
 0.1430273030     1     6     2     1
 0.0014767028     1     6     2     2
 0.0003884238     1     6     2     4
 0.0002991761     1     6     2     9
 -0.0014831758     1     6     2    10
 -0.0045750564     1     6     3     3
 -0.0024405996     1     6     3     7
 -0.0031676769     1     6     3     8
 -0.0762650526     1     6     4     1
 -0.0072107214     1     6     4     2
 -0.0092193688     1     6     4     4
 -0.0001393223     1     6     4     9
 0.0045017199     1     6     4    10
 -0.0089183032     1     6     5     5
 0.0064459074     1     6     5    11
 -0.3477869902     1     6     6     1
 -0.0018001545     1     6     6     2
 -0.0041172137     1     6     6     4
 -0.0003763859     1     6     6     9
 0.0018950005     1     6     6    10
 -0.0045491006     1     6     7     3
 -0.0017795433     1     6     7     7
 -0.0017584200     1     6     7     8
 -0.0027346513     1     6     8     3
 -0.0008486688     1     6     8     7
 -0.0005935800     1     6     8     8
 -0.1071906762     1     6     9     1
 -0.0019125651     1     6     9     2
 -0.0029920719     1     6     9     4
 0.0007087591     1     6     9     9
 0.0016064173     1     6     9    10
 0.0898947692     1     6    10     1
 0.0037311773     1     6    10     2
 0.0082815410     1     6    10     4
 0.0005831817     1     6    10     9
 -0.0051454783     1     6    10    10
 0.0088997044     1     6    11     5
 -0.0068590941     1     6    11    11
 -0.0026379482     1     7     2     3
 0.0004648964     1     7     2     8
 -0.1731107687     1     7     3     1
 -0.0130629194     1     7     3     2
 -0.0023363634     1     7     3     4
 0.0024405996     1     7     3     6
 0.0005815571     1     7     3     9
 -0.0002656367     1     7     3    10
 0.0012973163     1     7     4     3
 -0.0017296136     1     7     4     8
 -0.0021349990     1     7     6     3
 -0.0009114775     1     7     6     8
 -0.3252939738     1     7     7     1
 -0.0048952020     1     7     7     2
 -0.0027575830     1     7     7     4
 0.0017795433     1     7     7     6
 0.0009312490     1     7     7     9
 0.0006125290     1     7     7    10
 -0.0988050436     1     7     8     1
 -0.0038441332     1     7     8     2
 -0.0028798343     1     7     8     4
 0.0008486688     1     7     8     6
 0.0016149764     1     7     8     9
 -0.0005469672     1     7     8    10
 -0.0019733721     1     7     9     3
 0.0005405514     1     7     9     8
 -0.0002017989     1     7    10     3
 -0.0002969677     1     7    10     8
 -0.0032691671     1     8     2     3
 -0.0004648964     1     8     2     7
 -0.1016733783     1     8     3     1
 -0.0115613219     1     8     3     2
 0.0023827201     1     8     3     4
 0.0031676769     1     8     3     6
 0.0017516542     1     8     3     9
 -0.0031758591     1     8     3    10
 0.0050069767     1     8     4     3
 0.0017296136     1     8     4     7
 0.0004336524     1     8     6     3
 0.0009114775     1     8     6     7
 -0.0988050436     1     8     7     1
 -0.0043229304     1     8     7     2
 -0.0011595747     1     8     7     4
 0.0017584200     1     8     7     6
 0.0010725292     1     8     7     9
 -0.0002547365     1     8     7    10
 -0.4543137811     1     8     8     1
 -0.0033724029     1     8     8     2
 -0.0028077475     1     8     8     4
 0.0005935800     1     8     8     6
 0.0012396769     1     8     8     9
 -0.0002025586     1     8     8    10
 -0.0028935204     1     8     9     3
 -0.0005405514     1     8     9     7
 0.0004987087     1     8    10     3
 0.0002969677     1     8    10     7
 0.1139223249     1     9     2     1
 0.0018167871     1     9     2     2
 -0.0004942477     1     9     2     4
 -0.0002991761     1     9     2     6
 -0.0009567523     1     9     2    10
 -0.0002712409     1     9     3     3
 -0.0005815571     1     9     3     7
 -0.0017516542     1     9     3     8
 -0.0608991760     1     9     4     1
 -0.0079038575     1     9     4     2
 -0.0096871453     1     9     4     4
 0.0001393223     1     9     4     6
 0.0046499026     1     9     4    10
 -0.0118874039     1     9     5     5
 0.0086246489     1     9     5    11
 -0.1071906762     1     9     6     1
 -0.0021707349     1     9     6     2
 -0.0028995649     1     9     6     4
 0.0003763859     1     9     6     6
 0.0010244127     1     9     6    10
 -0.0025512648     1     9     7     3
 -0.0009312490     1     9     7     7
 -0.0010725292     1     9     7     8
 -0.0046280256     1     9     8     3
 -0.0016149764     1     9     8     7
 -0.0012396769     1     9     8     8
 -0.4543845189     1     9     9     1
 -0.0016956526     1     9     9     2
 -0.0060287553     1     9     9     4
 -0.0007087591     1     9     9     6
 0.0035698553     1     9     9    10
 0.0560506165     1     9    10     1
 0.0043849079     1     9    10     2
 0.0066939159     1     9    10     4
 -0.0005831817     1     9    10     6
 -0.0040157015     1     9    10    10
 0.0065224311     1     9    11     5
 -0.0051109699     1     9    11    11
 -0.0387848691     1    10     2     1
 -0.0056628820     1    10     2     2
 0.0042050239     1    10     2     4
 0.0014831758     1    10     2     6
 0.0009567523     1    10     2     9
 -0.0025969196     1    10     3     3
 0.0002656367     1    10     3     7
 0.0031758591     1    10     3     8
 0.2589267082     1    10     4     1
 0.0222698043     1    10     4     2
 0.0065471214     1    10     4     4
 -0.0045017199     1    10     4     6
 -0.0046499026     1    10     4     9
 -0.0029256049     1    10     5     5
 0.0017634284     1    10     5    11
 0.0898947692     1    10     6     1
 0.0052279734     1    10     6     2
 0.0037990163     1    10     6     4
 -0.0018950005     1    10     6     6
 -0.0010244127     1    10     6     9
 0.0001651707     1    10     7     3
 -0.0006125290     1    10     7     7
 0.0002547365     1    10     7     8
 0.0038482316     1    10     8     3
 0.0005469672     1    10     8     7
 0.0002025586     1    10     8     8
 0.0560506165     1    10     9     1
 0.0053271099     1    10     9     2
 0.0020123416     1    10     9     4
 -0.0016064173     1    10     9     6
 -0.0035698553     1    10     9     9
 -0.5357658055     1    10    10     1
 -0.0134786391     1    10    10     2
 -0.0029281097     1    10    10     4
 0.0051454783     1    10    10     6
 0.0040157015     1    10    10     9
 0.0000557052     1    10    11     5
 -0.0001071208     1    10    11    11
 0.0059302203     1    11     2     5
 0.0011567413     1    11     4     5
 0.3344919957     1    11     5     1
 0.0288759910     1    11     5     2
 0.0091789641     1    11     5     4
 -0.0064459074     1    11     5     6
 -0.0086246489     1    11     5     9
 -0.0017634284     1    11     5    10
 0.0023361225     1    11     6     5
 -0.0023105850     1    11     9     5
 -0.0016315484     1    11    10     5
 -0.6615347355     1    11    11     1
 -0.0191697080     1    11    11     2
 -0.0065603457     1    11    11     4
 0.0068590941     1    11    11     6
 0.0051109699     1    11    11     9
 0.0001071208     1    11    11    10
 -0.9840454313     2     1     1     2
 -0.0692491520     2     1     1     4
 0.1430273030     2     1     1     6
 0.1139223249     2     1     1     9
 -0.0387848691     2     1     1    10
 0.0307683952     2     1     3     3
 0.0097167768     2     1     3     7
 0.0077310667     2     1     3     8
 -0.0069267147     2     1     4     2
 0.0358913446     2     1     4     4
 0.0071079765     2     1     4     6
 0.0069588090     2     1     4     9
 -0.0168200071     2     1     4    10
 0.0411631985     2     1     5     5
 -0.0214052086     2     1     5    11
 -0.0014767028     2     1     6     2
 0.0072107214     2     1     6     4
 0.0018001545     2     1     6     6
 0.0019125651     2     1     6     9
 -0.0037311773     2     1     6    10
 0.0130629194     2     1     7     3
 0.0048952020     2     1     7     7
 0.0038441332     2     1     7     8
 0.0115613219     2     1     8     3
 0.0043229304     2     1     8     7
 0.0033724029     2     1     8     8
 -0.0018167871     2     1     9     2
 0.0079038575     2     1     9     4
 0.0021707349     2     1     9     6
 0.0016956526     2     1     9     9
 -0.0043849079     2     1     9    10
 0.0056628820     2     1    10     2
 -0.0222698043     2     1    10     4
 -0.0052279734     2     1    10     6
 -0.0053271099     2     1    10     9
 0.0134786391     2     1    10    10
 -0.0288759910     2     1    11     5
 0.0191697080     2     1    11    11
 0.9840454313     2     2     1     1
 0.0069267147     2     2     1     4
 0.0014767028     2     2     1     6
 0.0018167871     2     2     1     9
 -0.0056628820     2     2     1    10
 0.5275542166     2     2     3     3
 0.0700879688     2     2     3     7
 0.0214468680     2     2     3     8
 0.0069267147     2     2     4     1
 0.5515566400     2     2     4     4
 0.0331388999     2     2     4     6
 0.0203108332     2     2     4     9
 -0.0976526601     2     2     4    10
 0.5802321532     2     2     5     5
 -0.1241154338     2     2     5    11
 0.0014767028     2     2     6     1
 0.0331388999     2     2     6     4
 0.3010371469     2     2     6     6
 0.0577960231     2     2     6     9
 -0.0524390786     2     2     6    10
 0.0700879688     2     2     7     3
 0.2841478490     2     2     7     7
 0.0606699533     2     2     7     8
 0.0214468680     2     2     8     3
 0.0606699533     2     2     8     7
 0.4059259345     2     2     8     8
 0.0018167871     2     2     9     1
 0.0203108332     2     2     9     4
 0.0577960231     2     2     9     6
 0.4068467566     2     2     9     9
 -0.0145698168     2     2     9    10
 -0.0056628820     2     2    10     1
 -0.0976526601     2     2    10     4
 -0.0524390786     2     2    10     6
 -0.0145698168     2     2    10     9
 0.4054804379     2     2    10    10
 -0.1241154338     2     2    11     5
 0.4737213070     2     2    11    11
 -0.0026379482     2     3     1     7
 -0.0032691671     2     3     1     8
 -0.0307683952     2     3     3     1
 -0.5275542166     2     3     3     2
 -0.0024775861     2     3     3     4
 0.0656175179     2     3     3     6
 0.0704853296     2     3     3     9
 -0.0160671954     2     3     3    10
 0.0105079552     2     3     4     7
 0.0333593512     2     3     4     8
 -0.0339648592     2     3     6     7
 0.0001487887     2     3     6     8
 -0.0130629194     2     3     7     1
 -0.0700879688     2     3     7     2
 0.0007502308     2     3     7     4
 -0.0191560978     2     3     7     6
 -0.0005316115     2     3     7     9
 -0.0004988961     2     3     7    10
 -0.0115613219     2     3     8     1
 -0.0214468680     2     3     8     2
 0.0058515012     2     3     8     4
 0.0033952491     2     3     8     6
 -0.0279661854     2     3     8     9
 0.0263446217     2     3     8    10
 -0.0161054466     2     3     9     7
 -0.0292401375     2     3     9     8
 0.0032833955     2     3    10     7
 0.0233574320     2     3    10     8
 0.0692491520     2     4     1     1
 -0.0069267147     2     4     1     2
 0.0003884238     2     4     1     6
 -0.0004942477     2     4     1     9
 0.0042050239     2     4     1    10
 0.0024775861     2     4     3     3
 0.0097838249     2     4     3     7
 0.0277857363     2     4     3     8
 -0.0358913446     2     4     4     1
 -0.5515566400     2     4     4     2
 0.0650132056     2     4     4     6
 0.0399512582     2     4     4     9
 -0.0232856069     2     4     4    10
 0.0048589588     2     4     5     5
 -0.0075601723     2     4     5    11
 -0.0072107214     2     4     6     1
 -0.0331388999     2     4     6     2
 -0.0096053385     2     4     6     6
 0.0039222652     2     4     6     9
 0.0213944952     2     4     6    10
 -0.0007502308     2     4     7     3
 -0.0124990628     2     4     7     7
 -0.0024309629     2     4     7     8
 -0.0058515012     2     4     8     3
 -0.0083085549     2     4     8     7
 -0.0052445471     2     4     8     8
 -0.0079038575     2     4     9     1
 -0.0203108332     2     4     9     2
 0.0036044971     2     4     9     6
 -0.0253680257     2     4     9     9
 0.0053180252     2     4     9    10
 0.0222698043     2     4    10     1
 0.0976526601     2     4    10     2
 0.0033485596     2     4    10     6
 -0.0093811425     2     4    10     9
 0.0215196710     2     4    10    10
 -0.0050092697     2     4    11     5
 0.0121410236     2     4    11    11
 0.0059302203     2     5     1    11
 -0.0027064154     2     5     4    11
 -0.0411631985     2     5     5     1
 -0.5802321532     2     5     5     2
 -0.0048589588     2     5     5     4
 0.0624663765     2     5     5     6
 0.0243416721     2     5     5     9
 -0.0258010448     2     5     5    10
 0.0244382507     2     5     6    11
 -0.0060552043     2     5     9    11
 -0.0108885596     2     5    10    11
 0.0288759910     2     5    11     1
 0.1241154338     2     5    11     2
 0.0050092697     2     5    11     4
 -0.0008549827     2     5    11     6
 -0.0234552961     2     5    11     9
 -0.0013162343     2     5    11    10
 -0.1430273030     2     6     1     1
 -0.0014767028     2     6     1     2
 -0.0003884238     2     6     1     4
 -0.0002991761     2     6     1     9
 0.0014831758     2     6     1    10
 -0.0656175179     2     6     3     3
 -0.0144667502     2     6     3     7
 -0.0029272763     2     6     3     8
 -0.0071079765     2     6     4     1
 -0.0331388999     2     6     4     2
 -0.0650132056     2     6     4     4
 0.0003127133     2     6     4     9
 0.0176430544     2     6     4    10
 -0.0624663765     2     6     5     5
 0.0244729084     2     6     5    11
 -0.0018001545     2     6     6     1
 -0.3010371469     2     6     6     2
 0.0096053385     2     6     6     4
 -0.0055440875     2     6     6     9
 0.0069703076     2     6     6    10
 0.0191560978     2     6     7     3
 -0.0085839915     2     6     7     7
 -0.0133431428     2     6     7     8
 -0.0033952491     2     6     8     3
 -0.0077113455     2     6     8     7
 -0.0263507083     2     6     8     8
 -0.0021707349     2     6     9     1
 -0.0577960231     2     6     9     2
 -0.0036044971     2     6     9     4
 -0.0211579655     2     6     9     9
 -0.0004987012     2     6     9    10
 0.0052279734     2     6    10     1
 0.0524390786     2     6    10     2
 -0.0033485596     2     6    10     4
 -0.0018584554     2     6    10     9
 -0.0233123247     2     6    10    10
 0.0008549827     2     6    11     5
 -0.0368489481     2     6    11    11
 0.0026379482     2     7     1     3
 -0.0004648964     2     7     1     8
 -0.0097167768     2     7     3     1
 -0.0700879688     2     7     3     2
 -0.0097838249     2     7     3     4
 0.0144667502     2     7     3     6
 0.0147844100     2     7     3     9
 -0.0036237153     2     7     3    10
 -0.0105079552     2     7     4     3
 0.0054221621     2     7     4     8
 0.0339648592     2     7     6     3
 -0.0056439321     2     7     6     8
 -0.0048952020     2     7     7     1
 -0.2841478490     2     7     7     2
 0.0124990628     2     7     7     4
 0.0085839915     2     7     7     6
 -0.0011794031     2     7     7     9
 -0.0003673193     2     7     7    10
 -0.0043229304     2     7     8     1
 -0.0606699533     2     7     8     2
 0.0083085549     2     7     8     4
 0.0077113455     2     7     8     6
 0.0024870309     2     7     8     9
 -0.0000852169     2     7     8    10
 0.0161054466     2     7     9     3
 -0.0039088412     2     7     9     8
 -0.0032833955     2     7    10     3
 0.0039645230     2     7    10     8
 0.0032691671     2     8     1     3
 0.0004648964     2     8     1     7
 -0.0077310667     2     8     3     1
 -0.0214468680     2     8     3     2
 -0.0277857363     2     8     3     4
 0.0029272763     2     8     3     6
 0.0007033326     2     8     3     9
 0.0023860109     2     8     3    10
 -0.0333593512     2     8     4     3
 -0.0054221621     2     8     4     7
 -0.0001487887     2     8     6     3
 0.0056439321     2     8     6     7
 -0.0038441332     2     8     7     1
 -0.0606699533     2     8     7     2
 0.0024309629     2     8     7     4
 0.0133431428     2     8     7     6
 0.0063532078     2     8     7     9
 -0.0041936239     2     8     7    10
 -0.0033724029     2     8     8     1
 -0.4059259345     2     8     8     2
 0.0052445471     2     8     8     4
 0.0263507083     2     8     8     6
 0.0128112554     2     8     8     9
 -0.0076315660     2     8     8    10
 0.0292401375     2     8     9     3
 0.0039088412     2     8     9     7
 -0.0233574320     2     8    10     3
 -0.0039645230     2     8    10     7
 -0.1139223249     2     9     1     1
 -0.0018167871     2     9     1     2
 0.0004942477     2     9     1     4
 0.0002991761     2     9     1     6
 0.0009567523     2     9     1    10
 -0.0704853296     2     9     3     3
 -0.0147844100     2     9     3     7
 -0.0007033326     2     9     3     8
 -0.0069588090     2     9     4     1
 -0.0203108332     2     9     4     2
 -0.0399512582     2     9     4     4
 -0.0003127133     2     9     4     6
 0.0140710949     2     9     4    10
 -0.0243416721     2     9     5     5
 0.0168997378     2     9     5    11
 -0.0019125651     2     9     6     1
 -0.0577960231     2     9     6     2
 -0.0039222652     2     9     6     4
 0.0055440875     2     9     6     6
 0.0013682655     2     9     6    10
 0.0005316115     2     9     7     3
 0.0011794031     2     9     7     7
 -0.0063532078     2     9     7     8
 0.0279661854     2     9     8     3
 -0.0024870309     2     9     8     7
 -0.0128112554     2     9     8     8
 -0.0016956526     2     9     9     1
 -0.4068467566     2     9     9     2
 0.0253680257     2     9     9     4
 0.0211579655     2     9     9     6
 -0.0055835692     2     9     9    10
 0.0053271099     2     9    10     1
 0.0145698168     2     9    10     2
 0.0093811425     2     9    10     4
 0.0018584554     2     9    10     6
 -0.0125774803     2     9    10    10
 0.0234552961     2     9    11     5
 -0.0236915903     2     9    11    11
 0.0387848691     2    10     1     1
 0.0056628820     2    10     1     2
 -0.0042050239     2    10     1     4
 -0.0014831758     2    10     1     6
 -0.0009567523     2    10     1     9
 0.0160671954     2    10     3     3
 0.0036237153     2    10     3     7
 -0.0023860109     2    10     3     8
 0.0168200071     2    10     4     1
 0.0976526601     2    10     4     2
 0.0232856069     2    10     4     4
 -0.0176430544     2    10     4     6
 -0.0140710949     2    10     4     9
 0.0258010448     2    10     5     5
 -0.0085827561     2    10     5    11
 0.0037311773     2    10     6     1
 0.0524390786     2    10     6     2
 -0.0213944952     2    10     6     4
 -0.0069703076     2    10     6     6
 -0.0013682655     2    10     6     9
 0.0004988961     2    10     7     3
 0.0003673193     2    10     7     7
 0.0041936239     2    10     7     8
 -0.0263446217     2    10     8     3
 0.0000852169     2    10     8     7
 0.0076315660     2    10     8     8
 0.0043849079     2    10     9     1
 0.0145698168     2    10     9     2
 -0.0053180252     2    10     9     4
 0.0004987012     2    10     9     6
 0.0055835692     2    10     9     9
 -0.0134786391     2    10    10     1
 -0.4054804379     2    10    10     2
 -0.0215196710     2    10    10     4
 0.0233123247     2    10    10     6
 0.0125774803     2    10    10     9
 0.0013162343     2    10    11     5
 0.0082518460     2    10    11    11
 -0.0059302203     2    11     1     5
 0.0027064154     2    11     4     5
 0.0214052086     2    11     5     1
 0.1241154338     2    11     5     2
 0.0075601723     2    11     5     4
 -0.0244729084     2    11     5     6
 -0.0168997378     2    11     5     9
 0.0085827561     2    11     5    10
 -0.0244382507     2    11     6     5
 0.0060552043     2    11     9     5
 0.0108885596     2    11    10     5
 -0.0191697080     2    11    11     1
 -0.4737213070     2    11    11     2
 -0.0121410236     2    11    11     4
 0.0368489481     2    11    11     6
 0.0236915903     2    11    11     9
 -0.0082518460     2    11    11    10
 -0.8687299676     3     1     1     3
 -0.1731107687     3     1     1     7
 -0.1016733783     3     1     1     8
 -0.0307683952     3     1     2     3
 -0.0097167768     3     1     2     7
 -0.0077310667     3     1     2     8
 -0.0105942633     3     1     4     3
 -0.0034765342     3     1     4     7
 -0.0024988341     3     1     4     8
 0.0045750564     3     1     6     3
 0.0045491006     3     1     6     7
 0.0027346513     3     1     6     8
 0.0026379482     3     1     7     2
 -0.0012973163     3     1     7     4
 0.0021349990     3     1     7     6
 0.0019733721     3     1     7     9
 0.0002017989     3     1     7    10
 0.0032691671     3     1     8     2
 -0.0050069767     3     1     8     4
 -0.0004336524     3     1     8     6
 0.0028935204     3     1     8     9
 -0.0004987087     3     1     8    10
 0.0002712409     3     1     9     3
 0.0025512648     3     1     9     7
 0.0046280256     3     1     9     8
 0.0025969196     3     1    10     3
 -0.0001651707     3     1    10     7
 -0.0038482316     3     1    10     8
 -0.0307683952     3     2     1     3
 -0.0130629194     3     2     1     7
 -0.0115613219     3     2     1     8
 -0.5275542166     3     2     2     3
 -0.0700879688     3     2     2     7
 -0.0214468680     3     2     2     8
 -0.0024775861     3     2     4     3
 0.0007502308     3     2     4     7
 0.0058515012     3     2     4     8
 0.0656175179     3     2     6     3
 -0.0191560978     3     2     6     7
 0.0033952491     3     2     6     8
 -0.0026379482     3     2     7     1
 0.0105079552     3     2     7     4
 -0.0339648592     3     2     7     6
 -0.0161054466     3     2     7     9
 0.0032833955     3     2     7    10
 -0.0032691671     3     2     8     1
 0.0333593512     3     2     8     4
 0.0001487887     3     2     8     6
 -0.0292401375     3     2     8     9
 0.0233574320     3     2     8    10
 0.0704853296     3     2     9     3
 -0.0005316115     3     2     9     7
 -0.0279661854     3     2     9     8
 -0.0160671954     3     2    10     3
 -0.0004988961     3     2    10     7
 0.0263446217     3     2    10     8
 0.8687299676     3     3     1     1
 0.0307683952     3     3     1     2
 0.0105942633     3     3     1     4
 -0.0045750564     3     3     1     6
 -0.0002712409     3     3     1     9
 -0.0025969196     3     3     1    10
 0.0307683952     3     3     2     1
 0.5275542166     3     3     2     2
 0.0024775861     3     3     2     4
 -0.0656175179     3     3     2     6
 -0.0704853296     3     3     2     9
 0.0160671954     3     3     2    10
 0.0105942633     3     3     4     1
 0.0024775861     3     3     4     2
 0.5617528976     3     3     4     4
 0.0341507674     3     3     4     6
 0.0244023987     3     3     4     9
 -0.0971325159     3     3     4    10
 0.5864069275     3     3     5     5
 -0.1224925018     3     3     5    11
 -0.0045750564     3     3     6     1
 -0.0656175179     3     3     6     2
 0.0341507674     3     3     6     4
 0.3060390846     3     3     6     6
 0.0597033158     3     3     6     9
 -0.0530226881     3     3     6    10
 0.2672533225     3     3     7     7
 0.0443008471     3     3     7     8
 0.0443008471     3     3     8     7