&FCI NORB= 11,NELEC= 10,MS2=0,
 ORBSYM=1,1,1,1,1,1,1,1,1,1,1
 ISYM=1,
&END
 0.9844048854     1     1     2     2
 0.0667728360     1     1     2     4
 -0.1031181863     1     1     2     6
 -0.0517664935     1     1     2     8
 0.1069498669     1     1     2    11
 0.8720783946     1     1     3     3
 0.1125556885     1     1     3     7
 0.0414086877     1     1     3     9
 0.0667728360     1     1     4     2
 0.9494306890     1     1     4     4
 0.0555999521     1     1     4     6
 -0.1179305269     1     1     4     8
 -0.1529374422     1     1     4    11
 0.9954310422     1     1     5     5
 0.2135298721     1     1     5    10
 -0.1031181863     1     1     6     2
 0.0555999521     1     1     6     4
 0.2797958304     1     1     6     6
 0.0147002882     1     1     6     8
 -0.1067025514     1     1     6    11
 0.1125556885     1     1     7     3
 0.2411133352     1     1     7     7
 0.0305739127     1     1     7     9
 -0.0517664935     1     1     8     2
 -0.1179305269     1     1     8     4
 0.0147002882     1     1     8     6
 0.3090540466     1     1     8     8
 0.0208601238     1     1     8    11
 0.0414086877     1     1     9     3
 0.0305739127     1     1     9     7
 0.3143002825     1     1     9     9
 0.2135298721     1     1    10     5
 0.3959780062     1     1    10    10
 0.1069498669     1     1    11     2
 -0.1529374422     1     1    11     4
 -0.1067025514     1     1    11     6
 0.0208601238     1     1    11     8
 0.4231357564     1     1    11    11
 -0.9844048854     1     2     2     1
 0.0070462028     1     2     2     4
 0.0010034523     1     2     2     6
 -0.0020935785     1     2     2     8
 -0.0033446209     1     2     2    11
 -0.0313235668     1     2     3     3
 -0.0083877443     1     2     3     7
 -0.0050957798     1     2     3     9
 -0.0667728360     1     2     4     1
 -0.0359980264     1     2     4     4
 -0.0053200436     1     2     4     6
 0.0076140607     1     2     4     8
 0.0141912226     1     2     4    11
 -0.0408205438     1     2     5     5
 -0.0166131201     1     2     5    10
 0.1031181863     1     2     6     1
 -0.0050379568     1     2     6     4
 -0.0010069023     1     2     6     6
 0.0011636728     1     2     6     8
 0.0027332635     1     2     6    11
 -0.0060791911     1     2     7     3
 -0.0021150029     1     2     7     7
 -0.0012071436     1     2     7     9
 0.0517664935     1     2     8     1
 0.0053757820     1     2     8     4
 0.0007681317     1     2     8     6
 -0.0020669575     1     2     8     8
 -0.0029897296     1     2     8    11
 -0.0033217517     1     2     9     3
 -0.0010584526     1     2     9     7
 -0.0008728084     1     2     9     9
 -0.0124704845     1     2    10     5
 -0.0072277573     1     2    10    10
 -0.1069498669     1     2    11     1
 0.0115955079     1     2    11     4
 0.0022829465     1     2    11     6
 -0.0034799910     1     2    11     8
 -0.0061704312     1     2    11    11
 -0.0016433009     1     3     2     7
 -0.0014260399     1     3     2     9
 -0.8720783946     1     3     3     1
 0.0313235668     1     3     3     2
 0.0106153085     1     3     3     4
 -0.0035715015     1     3     3     6
 -0.0036903643     1     3     3     8
 0.0003000776     1     3     3    11
 0.0006694321     1     3     4     7
 0.0027730847     1     3     4     9
 -0.0015059918     1     3     6     7
 0.0003199863     1     3     6     9
 -0.1125556885     1     3     7     1
 0.0060791911     1     3     7     2
 0.0021554867     1     3     7     4
 -0.0026527710     1     3     7     6
 -0.0014349371     1     3     7     8
 0.0016077096     1     3     7    11
 -0.0007592470     1     3     8     7
 0.0007668741     1     3     8     9
 -0.0414086877     1     3     9     1
 0.0033217517     1     3     9     2
 0.0010508803     1     3     9     4
 -0.0008436476     1     3     9     6
 0.0009891123     1     3     9     8
 0.0025349325     1     3     9    11
 0.0010699346     1     3    11     7
 0.0009657854     1     3    11     9
 -0.0667728360     1     4     2     1
 -0.0070462028     1     4     2     2
 0.0002308729     1     4     2     6
 0.0015848510     1     4     2     8
 0.0014168144     1     4     2    11
 -0.0106153085     1     4     3     3
 -0.0016438394     1     4     3     7
 0.0016705366     1     4     3     9
 -0.9494306890     1     4     4     1
 0.0359980264     1     4     4     2
 -0.0068391186     1     4     4     6
 -0.0023457147     1     4     4     8
 0.0094310571     1     4     4    11
 -0.0136279801     1     4     5     5
 -0.0054256415     1     4     5    10
 -0.0555999521     1     4     6     1
 0.0050379568     1     4     6     2
 -0.0025920370     1     4     6     6
 0.0007018192     1     4     6     8
 0.0031174712     1     4     6    11
 -0.0021554867     1     4     7     3
 -0.0014478302     1     4     7     7
 -0.0007838620     1     4     7     9
 0.1179305269     1     4     8     1
 -0.0053757820     1     4     8     2
 0.0025152459     1     4     8     6
 0.0018264822     1     4     8     8
 -0.0008958619     1     4     8    11
 -0.0010508803     1     4     9     3
 -0.0014894273     1     4     9     7
 0.0001180518     1     4     9     9
 -0.0044695511     1     4    10     5
 -0.0022515883     1     4    10    10
 0.1529374422     1     4    11     1
 -0.0115955079     1     4    11     2
 0.0044366992     1     4    11     6
 0.0020640285     1     4    11     8
 -0.0061507146     1     4    11    11
 -0.0027809674     1     5     2    10
 -0.0006765903     1     5     4    10
 -0.9954310422     1     5     5     1
 0.0408205438     1     5     5     2
 0.0136279801     1     5     5     4
 -0.0063577305     1     5     5     6
 -0.0071605995     1     5     5     8
 0.0075871660     1     5     5    11
 -0.0021001445     1     5     6    10
 0.0001813812     1     5     8    10
 -0.2135298721     1     5    10     1
 0.0124704845     1     5    10     2
 0.0044695511     1     5    10     4
 -0.0047851949     1     5    10     6
 -0.0027997289     1     5    10     8
 0.0025025724     1     5    10    11
 -0.0008231232     1     5    11    10
 0.1031181863     1     6     2     1
 -0.0010034523     1     6     2     2
 -0.0002308729     1     6     2     4
 0.0004054159     1     6     2     8
 0.0004798708     1     6     2    11
 0.0035715015     1     6     3     3
 0.0011566273     1     6     3     7
 0.0011651349     1     6     3     9
 -0.0555999521     1     6     4     1
 0.0053200436     1     6     4     2
 0.0068391186     1     6     4     4
 -0.0017904781     1     6     4     8
 -0.0013519650     1     6     4    11
 0.0063577305     1     6     5     5
 0.0026158934     1     6     5    10
 -0.2797958304     1     6     6     1
 0.0010069023     1     6     6     2
 0.0025920370     1     6     6     4
 -0.0004771374     1     6     6     8
 -0.0006358350     1     6     6    11
 0.0026527710     1     6     7     3
 0.0006565021     1     6     7     7
 0.0003742247     1     6     7     9
 -0.0147002882     1     6     8     1
 -0.0007681317     1     6     8     2
 -0.0025152459     1     6     8     4
 0.0009722354     1     6     8     8
 0.0010490784     1     6     8    11
 0.0008436476     1     6     9     3
 0.0000545912     1     6     9     7
 0.0002031937     1     6     9     9
 0.0047851949     1     6    10     5
 0.0022737157     1     6    10    10
 0.1067025514     1     6    11     1
 -0.0022829465     1     6    11     2
 -0.0044366992     1     6    11     4
 0.0014762423     1     6    11     8
 0.0009654905     1     6    11    11
 0.0016433009     1     7     2     3
 -0.0001441053     1     7     2     9
 -0.1125556885     1     7     3     1
 0.0083877443     1     7     3     2
 0.0016438394     1     7     3     4
 -0.0011566273     1     7     3     6
 -0.0007326747     1     7     3     8
 0.0005108291     1     7     3    11
 -0.0006694321     1     7     4     3
 0.0007050609     1     7     4     9
 0.0015059918     1     7     6     3
 0.0003199918     1     7     6     9
 -0.2411133352     1     7     7     1
 0.0021150029     1     7     7     2
 0.0014478302     1     7     7     4
 -0.0006565021     1     7     7     6
 -0.0006008653     1     7     7     8
 0.0001842259     1     7     7    11
 0.0007592470     1     7     8     3
 0.0003339932     1     7     8     9
 -0.0305739127     1     7     9     1
 0.0010584526     1     7     9     2
 0.0014894273     1     7     9     4
 -0.0000545912     1     7     9     6
 0.0000031582     1     7     9     8
 0.0002224286     1     7     9    11
 -0.0010699346     1     7    11     3
 0.0001038815     1     7    11     9
 0.0517664935     1     8     2     1
 0.0020935785     1     8     2     2
 -0.0015848510     1     8     2     4
 -0.0004054159     1     8     2     6
 0.0005390217     1     8     2    11
 0.0036903643     1     8     3     3
 0.0007326747     1     8     3     7
 -0.0001588676     1     8     3     9
 0.1179305269     1     8     4     1
 -0.0076140607     1     8     4     2
 0.0023457147     1     8     4     4
 0.0017904781     1     8     4     6
 -0.0029419774     1     8     4    11
 0.0071605995     1     8     5     5
 0.0029834070     1     8     5    10
 -0.0147002882     1     8     6     1
 -0.0011636728     1     8     6     2
 -0.0007018192     1     8     6     4
 0.0004771374     1     8     6     6
 -0.0004289306     1     8     6    11
 0.0014349371     1     8     7     3
 0.0006008653     1     8     7     7
 0.0003305514     1     8     7     9
 -0.3090540466     1     8     8     1
 0.0020669575     1     8     8     2
 -0.0018264822     1     8     8     4
 -0.0009722354     1     8     8     6
 0.0011673221     1     8     8    11
 -0.0009891123     1     8     9     3
 -0.0000031582     1     8     9     7
 -0.0002210224     1     8     9     9
 0.0027997289     1     8    10     5
 0.0013310464     1     8    10    10
 -0.0208601238     1     8    11     1
 0.0034799910     1     8    11     2
 -0.0020640285     1     8    11     4
 -0.0014762423     1     8    11     6
 0.0024762650     1     8    11    11
 0.0014260399     1     9     2     3
 0.0001441053     1     9     2     7
 -0.0414086877     1     9     3     1
 0.0050957798     1     9     3     2
 -0.0016705366     1     9     3     4
 -0.0011651349     1     9     3     6
 0.0001588676     1     9     3     8
 0.0015483792     1     9     3    11
 -0.0027730847     1     9     4     3
 -0.0007050609     1     9     4     7
 -0.0003199863     1     9     6     3
 -0.0003199918     1     9     6     7
 -0.0305739127     1     9     7     1
 0.0012071436     1     9     7     2
 0.0007838620     1     9     7     4
 -0.0003742247     1     9     7     6
 -0.0003305514     1     9     7     8
 0.0001177772     1     9     7    11
 -0.0007668741     1     9     8     3
 -0.0003339932     1     9     8     7
 -0.3143002825     1     9     9     1
 0.0008728084     1     9     9     2
 -0.0001180518     1     9     9     4
 -0.0002031937     1     9     9     6
 0.0002210224     1     9     9     8
 0.0005744006     1     9     9    11
 -0.0009657854     1     9    11     3
 -0.0001038815     1     9    11     7
 0.0027809674     1    10     2     5
 0.0006765903     1    10     4     5
 -0.2135298721     1    10     5     1
 0.0166131201     1    10     5     2
 0.0054256415     1    10     5     4
 -0.0026158934     1    10     5     6
 -0.0029834070     1    10     5     8
 0.0031773377     1    10     5    11
 0.0021001445     1    10     6     5
 -0.0001813812     1    10     8     5
 -0.3959780062     1    10    10     1
 0.0072277573     1    10    10     2
 0.0022515883     1    10    10     4
 -0.0022737157     1    10    10     6
 -0.0013310464     1    10    10     8
 0.0013154867     1    10    10    11
 0.0008231232     1    10    11     5
 -0.1069498669     1    11     2     1
 0.0033446209     1    11     2     2
 -0.0014168144     1    11     2     4
 -0.0004798708     1    11     2     6
 -0.0005390217     1    11     2     8
 -0.0003000776     1    11     3     3
 -0.0005108291     1    11     3     7
 -0.0015483792     1    11     3     9
 0.1529374422     1    11     4     1
 -0.0141912226     1    11     4     2
 -0.0094310571     1    11     4     4
 0.0013519650     1    11     4     6
 0.0029419774     1    11     4     8
 -0.0075871660     1    11     5     5
 -0.0031773377     1    11     5    10
 0.1067025514     1    11     6     1
 -0.0027332635     1    11     6     2
 -0.0031174712     1    11     6     4
 0.0006358350     1    11     6     6
 0.0004289306     1    11     6     8
 -0.0016077096     1    11     7     3
 -0.0001842259     1    11     7     7
 -0.0001177772     1    11     7     9
 -0.0208601238     1    11     8     1
 0.0029897296     1    11     8     2
 0.0008958619     1    11     8     4
 -0.0010490784     1    11     8     6
 -0.0011673221     1    11     8     8
 -0.0025349325     1    11     9     3
 -0.0002224286     1    11     9     7
 -0.0005744006     1    11     9     9
 -0.0025025724     1    11    10     5
 -0.0013154867     1    11    10    10
 -0.4231357564     1    11    11     1
 0.0061704312     1    11    11     2
 0.0061507146     1    11    11     4
 -0.0009654905     1    11    11     6
 -0.0024762650     1    11    11     8
 -0.9844048854     2     1     1     2
 -0.0667728360     2     1     1     4
 0.1031181863     2     1     1     6
 0.0517664935     2     1     1     8
 -0.1069498669     2     1     1    11
 -0.0313235668     2     1     3     3
 -0.0060791911     2     1     3     7
 -0.0033217517     2     1     3     9
 0.0070462028     2     1     4     2
 -0.0359980264     2     1     4     4
 -0.0050379568     2     1     4     6
 0.0053757820     2     1     4     8
 0.0115955079     2     1     4    11
 -0.0408205438     2     1     5     5
 -0.0124704845     2     1     5    10
 0.0010034523     2     1     6     2
 -0.0053200436     2     1     6     4
 -0.0010069023     2     1     6     6
 0.0007681317     2     1     6     8
 0.0022829465     2     1     6    11
 -0.0083877443     2     1     7     3
 -0.0021150029     2     1     7     7
 -0.0010584526     2     1     7     9
 -0.0020935785     2     1     8     2
 0.0076140607     2     1     8     4
 0.0011636728     2     1     8     6
 -0.0020669575     2     1     8     8
 -0.0034799910     2     1     8    11
 -0.0050957798     2     1     9     3
 -0.0012071436     2     1     9     7
 -0.0008728084     2     1     9     9
 -0.0166131201     2     1    10     5
 -0.0072277573     2     1    10    10
 -0.0033446209     2     1    11     2
 0.0141912226     2     1    11     4
 0.0027332635     2     1    11     6
 -0.0029897296     2     1    11     8
 -0.0061704312     2     1    11    11
 0.9844048854     2     2     1     1
 -0.0070462028     2     2     1     4
 -0.0010034523     2     2     1     6
 0.0020935785     2     2     1     8
 0.0033446209     2     2     1    11
 0.5289027171     2     2     3     3
 0.0477862471     2     2     3     7
 0.0065290378     2     2     3     9
 -0.0070462028     2     2     4     1
 0.5505089899     2     2     4     4
 0.0242914948     2     2     4     6
 -0.0506141104     2     2     4     8
 -0.0595121147     2     2     4    11
 0.5773096911     2     2     5     5
 0.0895989740     2     2     5    10
 -0.0010034523     2     2     6     1
 0.0242914948     2     2     6     4
 0.2551389501     2     2     6     6
 0.0069441612     2     2     6     8
 -0.0678520783     2     2     6    11
 0.0477862471     2     2     7     3
 0.2242605392     2     2     7     7
 0.0223044719     2     2     7     9
 0.0020935785     2     2     8     1
 -0.0506141104     2     2     8     4
 0.0069441612     2     2     8     6
 0.2739143948     2     2     8     8
 0.0013100915     2     2     8    11
 0.0065290378     2     2     9     3
 0.0223044719     2     2     9     7
 0.2971270703     2     2     9     9
 0.0895989740     2     2    10     5
 0.3241934223     2     2    10    10
 0.0033446209     2     2    11     1
 -0.0595121147     2     2    11     4
 -0.0678520783     2     2    11     6
 0.0013100915     2     2    11     8
 0.3476435631     2     2    11    11
 0.0016433009     2     3     1     7
 0.0014260399     2     3     1     9
 0.0313235668     2     3     3     1
 -0.5289027171     2     3     3     2
 -0.0016782327     2     3     3     4
 0.0478674767     2     3     3     6
 0.0242549200     2     3     3     8
 -0.0602837516     2     3     3    11
 0.0056135565     2     3     4     7
 0.0197692168     2     3     4     9
 -0.0246982188     2     3     6     7
 -0.0000221461     2     3     6     9
 0.0083877443     2     3     7     1
 -0.0477862471     2     3     7     2
 0.0007720486     2     3     7     4
 -0.0174071646     2     3     7     6
 -0.0029507998     2     3     7     8
 0.0046328408     2     3     7    11
 -0.0070664245     2     3     8     7
 0.0153602557     2     3     8     9
 0.0050957798     2     3     9     1
 -0.0065290378     2     3     9     2
 0.0039220350     2     3     9     4
 0.0003655056     2     3     9     6
 0.0176239955     2     3     9     8
 0.0185495220     2     3     9    11
 0.0137500166     2     3    11     7
 0.0175570357     2     3    11     9
 0.0667728360     2     4     1     1
 0.0070462028     2     4     1     2
 -0.0002308729     2     4     1     6
 -0.0015848510     2     4     1     8
 -0.0014168144     2     4     1    11
 0.0016782327     2     4     3     3
 0.0050199471     2     4     3     7
 0.0158679861     2     4     3     9
 0.0359980264     2     4     4     1
 -0.5505089899     2     4     4     2
 0.0475987020     2     4     4     6
 0.0166184066     2     4     4     8
 -0.0455733763     2     4     4    11
 0.0038577294     2     4     5     5
 0.0025501784     2     4     5    10
 0.0053200436     2     4     6     1
 -0.0242914948     2     4     6     2
 -0.0096384140     2     4     6     6
 0.0158652603     2     4     6     8
 0.0084908395     2     4     6    11
 -0.0007720486     2     4     7     3
 -0.0091232791     2     4     7     7
 -0.0078488980     2     4     7     9
 -0.0076140607     2     4     8     1
 0.0506141104     2     4     8     2
 0.0068538461     2     4     8     6
 0.0145590181     2     4     8     8
 0.0189662601     2     4     8    11
 -0.0039220350     2     4     9     3
 -0.0102031092     2     4     9     7
 0.0079465081     2     4     9     9
 0.0015242478     2     4    10     5
 0.0065157575     2     4    10    10
 -0.0141912226     2     4    11     1
 0.0595121147     2     4    11     2
 0.0031819054     2     4    11     6
 0.0072566630     2     4    11     8
 -0.0063287212     2     4    11    11
 0.0027809674     2     5     1    10
 0.0007271532     2     5     4    10
 0.0408205438     2     5     5     1
 -0.5773096911     2     5     5     2
 -0.0038577294     2     5     5     4
 0.0472770911     2     5     5     6
 0.0124721004     2     5     5     8
 -0.0353288290     2     5     5    11
 -0.0216436162     2     5     6    10
 0.0003063662     2     5     8    10
 0.0166131201     2     5    10     1
 -0.0895989740     2     5    10     2
 -0.0015242478     2     5    10     4
 -0.0085965343     2     5    10     6
 0.0048462146     2     5    10     8
 -0.0165026129     2     5    10    11
 -0.0045158582     2     5    11    10
 -0.1031181863     2     6     1     1
 0.0010034523     2     6     1     2
 0.0002308729     2     6     1     4
 -0.0004054159     2     6     1     8
 -0.0004798708     2     6     1    11
 -0.0478674767     2     6     3     3
 -0.0071095378     2     6     3     7
 -0.0002621250     2     6     3     9
 0.0050379568     2     6     4     1
 -0.0242914948     2     6     4     2
 -0.0475987020     2     6     4     4
 0.0087970097     2     6     4     8
 0.0050848724     2     6     4    11
 -0.0472770911     2     6     5     5
 -0.0127758495     2     6     5    10
 0.0010069023     2     6     6     1
 -0.2551389501     2     6     6     2
 0.0096384140     2     6     6     4
 0.0009722935     2     6     6     8
 0.0033411498     2     6     6    11
 0.0174071646     2     6     7     3
 -0.0031647843     2     6     7     7
 -0.0035974344     2     6     7     9
 -0.0011636728     2     6     8     1
 -0.0069441612     2     6     8     2
 -0.0068538461     2     6     8     4
 -0.0065988246     2     6     8     8
 -0.0002840847     2     6     8    11
 -0.0003655056     2     6     9     3
 -0.0019245428     2     6     9     7
 -0.0099258947     2     6     9     9
 0.0085965343     2     6    10     5
 -0.0112107900     2     6    10    10
 -0.0027332635     2     6    11     1
 0.0678520783     2     6    11     2
 -0.0031819054     2     6    11     4
 -0.0012996504     2     6    11     8
 -0.0098505352     2     6    11    11
 -0.0016433009     2     7     1     3
 0.0001441053     2     7     1     9
 0.0060791911     2     7     3     1
 -0.0477862471     2     7     3     2
 -0.0050199471     2     7     3     4
 0.0071095378     2     7     3     6
 0.0040374587     2     7     3     8
 -0.0088209663     2     7     3    11
 -0.0056135565     2     7     4     3
 0.0022015163     2     7     4     9
 0.0246982188     2     7     6     3
 -0.0016682936     2     7     6     9
 0.0021150029     2     7     7     1
 -0.2242605392     2     7     7     2
 0.0091232791     2     7     7     4
 0.0031647843     2     7     7     6
 -0.0000608768     2     7     7     8
 0.0006883040     2     7     7    11
 0.0070664245     2     7     8     3
 0.0014015742     2     7     8     9
 0.0012071436     2     7     9     1
 -0.0223044719     2     7     9     2
 0.0102031092     2     7     9     4
 0.0019245428     2     7     9     6
 0.0013193492     2     7     9     8
 -0.0004707573     2     7     9    11
 -0.0137500166     2     7    11     3
 0.0021012371     2     7    11     9
 -0.0517664935     2     8     1     1
 -0.0020935785     2     8     1     2
 0.0015848510     2     8     1     4
 0.0004054159     2     8     1     6
 -0.0005390217     2     8     1    11
 -0.0242549200     2     8     3     3
 -0.0040374587     2     8     3     7
 -0.0018543924     2     8     3     9
 -0.0053757820     2     8     4     1
 0.0506141104     2     8     4     2
 -0.0166184066     2     8     4     4
 -0.0087970097     2     8     4     6
 0.0114304033     2     8     4    11
 -0.0124721004     2     8     5     5
 -0.0046809952     2     8     5    10
 -0.0007681317     2     8     6     1
 -0.0069441612     2     8     6     2
 -0.0158652603     2     8     6     4
 -0.0009722935     2     8     6     6
 0.0010102236     2     8     6    11
 0.0029507998     2     8     7     3
 0.0000608768     2     8     7     7
 0.0001202731     2     8     7     9
 0.0020669575     2     8     8     1
 -0.2739143948     2     8     8     2
 -0.0145590181     2     8     8     4
 0.0065988246     2     8     8     6
 -0.0046754349     2     8     8    11
 -0.0176239955     2     8     9     3
 -0.0013193492     2     8     9     7
 -0.0034911501     2     8     9     9
 -0.0048462146     2     8    10     5
 -0.0045031487     2     8    10    10
 0.0029897296     2     8    11     1
 -0.0013100915     2     8    11     2
 -0.0072566630     2     8    11     4
 0.0012996504     2     8    11     6
 -0.0044864345     2     8    11    11
 -0.0014260399     2     9     1     3
 -0.0001441053     2     9     1     7
 0.0033217517     2     9     3     1
 -0.0065290378     2     9     3     2
 -0.0158679861     2     9     3     4
 0.0002621250     2     9     3     6
 0.0018543924     2     9     3     8
 0.0011773726     2     9     3    11
 -0.0197692168     2     9     4     3
 -0.0022015163     2     9     4     7
 0.0000221461     2     9     6     3
 0.0016682936     2     9     6     7
 0.0010584526     2     9     7     1
 -0.0223044719     2     9     7     2
 0.0078488980     2     9     7     4
 0.0035974344     2     9     7     6
 -0.0001202731     2     9     7     8
 -0.0026087429     2     9     7    11
 -0.0153602557     2     9     8     3
 -0.0014015742     2     9     8     7
 0.0008728084     2     9     9     1
 -0.2971270703     2     9     9     2
 -0.0079465081     2     9     9     4
 0.0099258947     2     9     9     6
 0.0034911501     2     9     9     8
 -0.0050861259     2     9     9    11
 -0.0175570357     2     9    11     3
 -0.0021012371     2     9    11     7
 -0.0027809674     2    10     1     5
 -0.0007271532     2    10     4     5
 0.0124704845     2    10     5     1
 -0.0895989740     2    10     5     2
 -0.0025501784     2    10     5     4
 0.0127758495     2    10     5     6
 0.0046809952     2    10     5     8
 -0.0117593236     2    10     5    11
 0.0216436162     2    10     6     5
 -0.0003063662     2    10     8     5
 0.0072277573     2    10    10     1
 -0.3241934223     2    10    10     2
 -0.0065157575     2    10    10     4
 0.0112107900     2    10    10     6
 0.0045031487     2    10    10     8
 -0.0100045492     2    10    10    11
 0.0045158582     2    10    11     5
 0.1069498669     2    11     1     1
 -0.0033446209     2    11     1     2
 0.0014168144     2    11     1     4
 0.0004798708     2    11     1     6
 0.0005390217     2    11     1     8
 0.0602837516     2    11     3     3
 0.0088209663     2    11     3     7
 -0.0011773726     2    11     3     9
 -0.0115955079     2    11     4     1
 0.0595121147     2    11     4     2
 0.0455733763     2    11     4     4
 -0.0050848724     2    11     4     6
 -0.0114304033     2    11     4     8
 0.0353288290     2    11     5     5
 0.0117593236     2    11     5    10
 -0.0022829465     2    11     6     1
 0.0678520783     2    11     6     2
 -0.0084908395     2    11     6     4
 -0.0033411498     2    11     6     6
 -0.0010102236     2    11     6     8
 -0.0046328408     2    11     7     3
 -0.0006883040     2    11     7     7
 0.0026087429     2    11     7     9
 0.0034799910     2    11     8     1
 -0.0013100915     2    11     8     2
 -0.0189662601     2    11     8     4
 0.0002840847     2    11     8     6
 0.0046754349     2    11     8     8
 -0.0185495220     2    11     9     3
 0.0004707573     2    11     9     7
 0.0050861259     2    11     9     9
 0.0165026129     2    11    10     5
 0.0100045492     2    11    10    10
 0.0061704312     2    11    11     1
 -0.3476435631     2    11    11     2
 0.0063287212     2    11    11     4
 0.0098505352     2    11    11     6
 0.0044864345     2    11    11     8
 -0.8720783946     3     1     1     3
 -0.1125556885     3     1     1     7
 -0.0414086877     3     1     1     9
 0.0313235668     3     1     2     3
 0.0060791911     3     1     2     7
 0.0033217517     3     1     2     9
 0.0106153085     3     1     4     3
 0.0021554867     3     1     4     7
 0.0010508803     3     1     4     9
 -0.0035715015     3     1     6     3
 -0.0026527710     3     1     6     7
 -0.0008436476     3     1     6     9
 -0.0016433009     3     1     7     2
 0.0006694321     3     1     7     4
 -0.0015059918     3     1     7     6
 -0.0007592470     3     1     7     8
 0.0010699346     3     1     7    11
 -0.0036903643     3     1     8     3
 -0.0014349371     3     1     8     7
 0.0009891123     3     1     8     9
 -0.0014260399     3     1     9     2
 0.0027730847     3     1     9     4
 0.0003199863     3     1     9     6
 0.0007668741     3     1     9     8
 0.0009657854     3     1     9    11
 0.0003000776     3     1    11     3
 0.0016077096     3     1    11     7
 0.0025349325     3     1    11     9
 0.0313235668     3     2     1     3
 0.0083877443     3     2     1     7
 0.0050957798     3     2     1     9
 -0.5289027171     3     2     2     3
 -0.0477862471     3     2     2     7
 -0.0065290378     3     2     2     9
 -0.0016782327     3     2     4     3
 0.0007720486     3     2     4     7
 0.0039220350     3     2     4     9
 0.0478674767     3     2     6     3
 -0.0174071646     3     2     6     7
 0.0003655056     3     2     6     9
 0.0016433009     3     2     7     1
 0.0056135565     3     2     7     4
 -0.0246982188     3     2     7     6
 -0.0070664245     3     2     7     8
 0.0137500166     3     2     7    11
 0.0242549200     3     2     8     3
 -0.0029507998     3     2     8     7
 0.0176239955     3     2     8     9
 0.0014260399     3     2     9     1
 0.0197692168     3     2     9     4
 -0.0000221461     3     2     9     6
 0.0153602557     3     2     9     8
 0.0175570357     3     2     9    11
 -0.0602837516     3     2    11     3
 0.0046328408     3     2    11     7
 0.0185495220     3     2    11     9
 0.8720783946     3     3     1     1
 -0.0313235668     3     3     1     2
 -0.0106153085     3     3     1     4
 0.0035715015     3     3     1     6
 0.0036903643     3     3     1     8
 -0.0003000776     3     3     1    11
 -0.0313235668     3     3     2     1
 0.5289027171     3     3     2     2
 0.0016782327     3     3     2     4
 -0.0478674767     3     3     2     6
 -0.0242549200     3     3     2     8
 0.0602837516     3     3     2    11
 -0.0106153085     3     3     4     1
 0.0016782327     3     3     4     2
 0.5629674695     3     3     4     4
 0.0262865594     3     3     4     6
 -0.0516408554     3     3     4     8
 -0.0643102248     3     3     4    11
 0.5860290936     3     3     5     5
 0.0922823286     3     3     5    10
 0.0035715015     3     3     6     1
 -0.0478674767     3     3     6     2
 0.0262865594     3     3     6     4
 0.2578576236     3     3     6     6
 0.0081331914     3     3     6     8
 -0.0711428432     3     3     6    11
 0.2187138358     3     3     7     7
 0.0182662454     3     3     7     9
 0.0036903643     3     3     8     1