&FCI NORB= 11,NELEC= 10,MS2=0,
 ORBSYM=1,1,1,1,1,1,1,1,1,1,1
 ISYM=1,
&END
 0.9899388271     1     1     2     2
 -0.0165739397     1     1     2     3
 0.0761021966     1     1     2     4
 -0.1234134220     1     1     2     6
 0.0426593755     1     1     2     7
 0.0545268181     1     1     2     8
 0.0667193202     1     1     2     9
 0.0265507516     1     1     2    10
 -0.0165739397     1     1     3     2
 0.8491258577     1     1     3     3
 -0.0553493323     1     1     3     4
 0.0631195430     1     1     3     6
 0.1505090994     1     1     3     7
 -0.0795842151     1     1     3     8
 0.0187276346     1     1     3     9
 0.1079097299     1     1     3    10
 0.0761021966     1     1     4     2
 -0.0553493323     1     1     4     3
 0.8986008541     1     1     4     4
 0.1282821951     1     1     4     6
 0.0382712001     1     1     4     7
 -0.0934608714     1     1     4     8
 0.0440470875     1     1     4     9
 -0.2030171528     1     1     4    10
 1.0033138994     1     1     5     5
 0.2553030167     1     1     5    11
 -0.1234134220     1     1     6     2
 0.0631195430     1     1     6     3
 0.1282821951     1     1     6     4
 0.3705235573     1     1     6     6
 0.0224837530     1     1     6     7
 -0.1290950161     1     1     6     8
 -0.0254095845     1     1     6     9
 -0.0758392135     1     1     6    10
 0.0426593755     1     1     7     2
 0.1505090994     1     1     7     3
 0.0382712001     1     1     7     4
 0.0224837530     1     1     7     6
 0.3072650115     1     1     7     7
 -0.0751724344     1     1     7     8
 0.0472202826     1     1     7     9
 0.0515712098     1     1     7    10
 0.0545268181     1     1     8     2
 -0.0795842151     1     1     8     3
 -0.0934608714     1     1     8     4
 -0.1290950161     1     1     8     6
 -0.0751724344     1     1     8     7
 0.3903323365     1     1     8     8
 -0.0113581540     1     1     8     9
 0.0255785308     1     1     8    10
 0.0667193202     1     1     9     2
 0.0187276346     1     1     9     3
 0.0440470875     1     1     9     4
 -0.0254095845     1     1     9     6
 0.0472202826     1     1     9     7
 -0.0113581540     1     1     9     8
 0.3711172887     1     1     9     9
 0.0142294422     1     1     9    10
 0.0265507516     1     1    10     2
 0.1079097299     1     1    10     3
 -0.2030171528     1     1    10     4
 -0.0758392135     1     1    10     6
 0.0515712098     1     1    10     7
 0.0255785308     1     1    10     8
 0.0142294422     1     1    10     9
 0.4701031450     1     1    10    10
 0.2553030167     1     1    11     5
 0.4950720092     1     1    11    11
 -0.9899388271     1     2     2     1
 -0.0038051999     1     2     2     3
 0.0040175940     1     2     2     4
 0.0005239836     1     2     2     6
 -0.0012297570     1     2     2     7
 -0.0000461790     1     2     2     8
 0.0000186055     1     2     2     9
 -0.0038759001     1     2     2    10
 0.0165739397     1     2     3     1
 -0.0303115732     1     2     3     3
 0.0034705240     1     2     3     4
 -0.0037349985     1     2     3     6
 -0.0113154988     1     2     3     7
 0.0071751003     1     2     3     8
 -0.0036202328     1     2     3     9
 -0.0102592321     1     2     3    10
 -0.0761021966     1     2     4     1
 0.0030376419     1     2     4     3
 -0.0332929495     1     2     4     4
 -0.0103849606     1     2     4     6
 -0.0019950832     1     2     4     7
 0.0087712820     1     2     4     8
 -0.0019748008     1     2     4     9
 0.0167600436     1     2     4    10
 -0.0419737770     1     2     5     5
 -0.0217529052     1     2     5    11
 0.1234134220     1     2     6     1
 -0.0024189833     1     2     6     3
 -0.0090490781     1     2     6     4
 -0.0046038949     1     2     6     6
 -0.0023794671     1     2     6     7
 0.0043676460     1     2     6     8
 -0.0010027582     1     2     6     9
 0.0046714967     1     2     6    10
 -0.0426593755     1     2     7     1
 -0.0087866492     1     2     7     3
 -0.0013495737     1     2     7     4
 -0.0024866793     1     2     7     6
 -0.0043974123     1     2     7     7
 0.0035291315     1     2     7     8
 -0.0015213094     1     2     7     9
 -0.0022492252     1     2     7    10
 -0.0545268181     1     2     8     1
 0.0049264806     1     2     8     3
 0.0071314150     1     2     8     4
 0.0041720224     1     2     8     6
 0.0032614753     1     2     8     7
 -0.0044519873     1     2     8     8
 0.0014651124     1     2     8     9
 -0.0027571039     1     2     8    10
 -0.0667193202     1     2     9     1
 -0.0025910454     1     2     9     3
 -0.0011553549     1     2     9     4
 -0.0007843120     1     2     9     6
 -0.0013900736     1     2     9     7
 0.0013235215     1     2     9     8
 -0.0006104114     1     2     9     9
 0.0000678077     1     2     9    10
 -0.0265507516     1     2    10     1
 -0.0073687673     1     2    10     3
 0.0128757461     1     2    10     4
 0.0037359261     1     2    10     6
 -0.0019077170     1     2    10     7
 -0.0023190574     1     2    10     8
 0.0003508300     1     2    10     9
 -0.0108420135     1     2    10    10
 -0.0160979559     1     2    11     5
 -0.0111188945     1     2    11    11
 0.0165739397     1     3     2     1
 0.0038051999     1     3     2     2
 0.0004324220     1     3     2     4
 -0.0011087260     1     3     2     6
 -0.0018140150     1     3     2     7
 0.0018526634     1     3     2     8
 -0.0008052823     1     3     2     9
 -0.0022932379     1     3     2    10
 -0.8491258577     1     3     3     1
 0.0303115732     1     3     3     2
 0.0072604373     1     3     3     4
 -0.0036742743     1     3     3     6
 0.0022911777     1     3     3     7
 0.0005765387     1     3     3     8
 0.0006086411     1     3     3     9
 -0.0017786545     1     3     3    10
 0.0553493323     1     3     4     1
 -0.0030376419     1     3     4     2
 0.0039227366     1     3     4     4
 0.0030536045     1     3     4     6
 0.0013203717     1     3     4     7
 -0.0044379212     1     3     4     8
 0.0012084444     1     3     4     9
 -0.0012741251     1     3     4    10
 0.0060111631     1     3     5     5
 0.0038665450     1     3     5    11
 -0.0631195430     1     3     6     1
 0.0024189833     1     3     6     2
 0.0019859165     1     3     6     4
 -0.0005788566     1     3     6     6
 -0.0011865555     1     3     6     7
 -0.0002640403     1     3     6     8
 0.0007439358     1     3     6     9
 -0.0011091941     1     3     6    10
 -0.1505090994     1     3     7     1
 0.0087866492     1     3     7     2
 0.0025937851     1     3     7     4
 -0.0032362073     1     3     7     6
 0.0022409716     1     3     7     7
 0.0007894819     1     3     7     8
 0.0015492343     1     3     7     9
 0.0007092093     1     3     7    10
 0.0795842151     1     3     8     1
 -0.0049264806     1     3     8     2
 -0.0023252454     1     3     8     4
 0.0014116062     1     3     8     6
 -0.0000713959     1     3     8     7
 -0.0019947162     1     3     8     8
 -0.0003106533     1     3     8     9
 -0.0006845524     1     3     8    10
 -0.0187276346     1     3     9     1
 0.0025910454     1     3     9     2
 0.0006071011     1     3     9     4
 -0.0002037451     1     3     9     6
 0.0016483584     1     3     9     7
 0.0001092375     1     3     9     8
 0.0008230430     1     3     9     9
 0.0030382331     1     3     9    10
 -0.1079097299     1     3    10     1
 0.0073687673     1     3    10     2
 0.0001404632     1     3    10     4
 -0.0031904714     1     3    10     6
 0.0012812962     1     3    10     7
 0.0012652624     1     3    10     8
 0.0025242844     1     3    10     9
 0.0024791385     1     3    10    10
 0.0020986757     1     3    11     5
 -0.0000158899     1     3    11    11
 -0.0761021966     1     4     2     1
 -0.0040175940     1     4     2     2
 -0.0004324220     1     4     2     3
 -0.0005997824     1     4     2     6
 -0.0005481116     1     4     2     7
 0.0010957161     1     4     2     8
 -0.0007114785     1     4     2     9
 0.0027932957     1     4     2    10
 0.0553493323     1     4     3     1
 -0.0034705240     1     4     3     2
 -0.0072604373     1     4     3     3
 0.0009737968     1     4     3     6
 -0.0014177401     1     4     3     7
 -0.0019943306     1     4     3     8
 0.0005941821     1     4     3     9
 -0.0014359287     1     4     3    10
 -0.8986008541     1     4     4     1
 0.0332929495     1     4     4     2
 -0.0039227366     1     4     4     3
 -0.0079518720     1     4     4     6
 0.0016258660     1     4     4     7
 0.0040586842     1     4     4     8
 0.0052604830     1     4     4     9
 0.0039509082     1     4     4    10
 -0.0107653188     1     4     5     5
 -0.0046174476     1     4     5    11
 -0.1282821951     1     4     6     1
 0.0090490781     1     4     6     2
 -0.0019859165     1     4     6     3
 -0.0049831939     1     4     6     6
 -0.0004122793     1     4     6     7
 0.0028037246     1     4     6     8
 0.0012492904     1     4     6     9
 0.0028302453     1     4     6    10
 -0.0382712001     1     4     7     1
 0.0013495737     1     4     7     2
 -0.0025937851     1     4     7     3
 -0.0011678780     1     4     7     6
 -0.0017908903     1     4     7     7
 0.0011149856     1     4     7     8
 0.0001192854     1     4     7     9
 -0.0011690861     1     4     7    10
 0.0934608714     1     4     8     1
 -0.0071314150     1     4     8     2
 0.0023252454     1     4     8     3
 0.0038756416     1     4     8     6
 0.0013254048     1     4     8     7
 -0.0044806161     1     4     8     8
 -0.0017509109     1     4     8     9
 -0.0006971588     1     4     8    10
 -0.0440470875     1     4     9     1
 0.0011553549     1     4     9     2
 -0.0006071011     1     4     9     3
 -0.0010348061     1     4     9     6
 -0.0005490763     1     4     9     7
 -0.0000345575     1     4     9     8
 -0.0010155870     1     4     9     9
 -0.0004452143     1     4     9    10
 0.2030171528     1     4    10     1
 -0.0128757461     1     4    10     2
 -0.0001404632     1     4    10     3
 0.0057552310     1     4    10     6
 -0.0023276528     1     4    10     7
 -0.0022638088     1     4    10     8
 -0.0031290393     1     4    10     9
 -0.0017192777     1     4    10    10
 -0.0046500774     1     4    11     5
 -0.0044100626     1     4    11    11
 -0.0043377977     1     5     2    11
 0.0016873936     1     5     3    11
 0.0003217933     1     5     4    11
 -1.0033138994     1     5     5     1
 0.0419737770     1     5     5     2
 -0.0060111631     1     5     5     3
 0.0107653188     1     5     5     4
 -0.0086631845     1     5     5     6
 0.0019324850     1     5     5     7
 0.0057379993     1     5     5     8
 0.0077383169     1     5     5     9
 -0.0009304445     1     5     5    10
 -0.0014277317     1     5     6    11
 0.0006829614     1     5     7    11
 -0.0010822019     1     5     8    11
 -0.0008998190     1     5     9    11
 0.0000216387     1     5    10    11
 -0.2553030167     1     5    11     1
 0.0160979559     1     5    11     2
 -0.0020986757     1     5    11     3
 0.0046500774     1     5    11     4
 -0.0065178168     1     5    11     6
 0.0012745892     1     5    11     7
 0.0025372202     1     5    11     8
 0.0030707545     1     5    11     9
 -0.0001404855     1     5    11    10
 0.1234134220     1     6     2     1
 -0.0005239836     1     6     2     2
 0.0011087260     1     6     2     3
 0.0005997824     1     6     2     4
 0.0001173169     1     6     2     7
 0.0001939272     1     6     2     8
 -0.0001972391     1     6     2     9
 0.0009249840     1     6     2    10
 -0.0631195430     1     6     3     1
 0.0037349985     1     6     3     2
 0.0036742743     1     6     3     3
 -0.0009737968     1     6     3     4
 0.0020587177     1     6     3     7
 -0.0016919618     1     6     3     8
 0.0009544591     1     6     3     9
 0.0020465410     1     6     3    10
 -0.1282821951     1     6     4     1
 0.0103849606     1     6     4     2
 -0.0030536045     1     6     4     3
 0.0079518720     1     6     4     4
 0.0007684479     1     6     4     7
 -0.0011125398     1     6     4     8
 0.0022738463     1     6     4     9
 -0.0029209667     1     6     4    10
 0.0086631845     1     6     5     5
 0.0050307525     1     6     5    11
 -0.3705235573     1     6     6     1
 0.0046038949     1     6     6     2
 0.0005788566     1     6     6     3
 0.0049831939     1     6     6     4
 0.0007680299     1     6     6     7
 -0.0008729577     1     6     6     8
 0.0011228875     1     6     6     9
 -0.0011695162     1     6     6    10
 -0.0224837530     1     6     7     1
 0.0024866793     1     6     7     2
 0.0032362073     1     6     7     3
 0.0011678780     1     6     7     4
 0.0016027320     1     6     7     7
 -0.0008803694     1     6     7     8
 0.0009434563     1     6     7     9
 0.0006574125     1     6     7    10
 0.1290950161     1     6     8     1
 -0.0041720224     1     6     8     2
 -0.0014116062     1     6     8     3
 -0.0038756416     1     6     8     4
 -0.0009085271     1     6     8     7
 -0.0001665146     1     6     8     8
 -0.0012919633     1     6     8     9
 0.0007657648     1     6     8    10
 0.0254095845     1     6     9     1
 0.0007843120     1     6     9     2
 0.0002037451     1     6     9     3
 0.0010348061     1     6     9     4
 0.0003616171     1     6     9     7
 -0.0004338371     1     6     9     8
 -0.0001150905     1     6     9     9
 -0.0000671023     1     6     9    10
 0.0758392135     1     6    10     1
 -0.0037359261     1     6    10     2
 0.0031904714     1     6    10     3
 -0.0057552310     1     6    10     4
 0.0001270505     1     6    10     7
 0.0003323529     1     6    10     8
 -0.0007862150     1     6    10     9
 0.0039241982     1     6    10    10
 0.0065178168     1     6    11     5
 0.0030619958     1     6    11    11
 -0.0426593755     1     7     2     1
 0.0012297570     1     7     2     2
 0.0018140150     1     7     2     3
 0.0005481116     1     7     2     4
 -0.0001173169     1     7     2     6
 0.0002558385     1     7     2     8
 -0.0001193435     1     7     2     9
 -0.0003423348     1     7     2    10
 -0.1505090994     1     7     3     1
 0.0113154988     1     7     3     2
 -0.0022911777     1     7     3     3
 0.0014177401     1     7     3     4
 -0.0020587177     1     7     3     6
 0.0008585615     1     7     3     8
 -0.0000733005     1     7     3     9
 -0.0006327322     1     7     3    10
 -0.0382712001     1     7     4     1
 0.0019950832     1     7     4     2
 -0.0013203717     1     7     4     3
 -0.0016258660     1     7     4     4
 -0.0007684479     1     7     4     6
 -0.0002032556     1     7     4     8
 0.0006925793     1     7     4     9
 0.0011419997     1     7     4    10
 -0.0019324850     1     7     5     5
 -0.0005722950     1     7     5    11
 -0.0224837530     1     7     6     1
 0.0023794671     1     7     6     2
 0.0011865555     1     7     6     3
 0.0004122793     1     7     6     4
 -0.0007680299     1     7     6     6
 0.0000278725     1     7     6     8
 0.0005831347     1     7     6     9
 0.0005312425     1     7     6    10
 -0.3072650115     1     7     7     1
 0.0043974123     1     7     7     2
 -0.0022409716     1     7     7     3
 0.0017908903     1     7     7     4
 -0.0016027320     1     7     7     6
 0.0008351038     1     7     7     8
 0.0004834626     1     7     7     9
 -0.0006863520     1     7     7    10
 0.0751724344     1     7     8     1
 -0.0032614753     1     7     8     2
 0.0000713959     1     7     8     3
 -0.0013254048     1     7     8     4
 0.0009085271     1     7     8     6
 -0.0011537581     1     7     8     8
 -0.0003584164     1     7     8     9
 -0.0002924752     1     7     8    10
 -0.0472202826     1     7     9     1
 0.0013900736     1     7     9     2
 -0.0016483584     1     7     9     3
 0.0005490763     1     7     9     4
 -0.0003616171     1     7     9     6
 0.0004028218     1     7     9     8
 0.0000772963     1     7     9     9
 0.0005917428     1     7     9    10
 -0.0515712098     1     7    10     1
 0.0019077170     1     7    10     2
 -0.0012812962     1     7    10     3
 0.0023276528     1     7    10     4
 -0.0001270505     1     7    10     6
 -0.0000783866     1     7    10     8
 0.0007455036     1     7    10     9
 -0.0007711841     1     7    10    10
 -0.0012745892     1     7    11     5
 -0.0014500693     1     7    11    11
 -0.0545268181     1     8     2     1
 0.0000461790     1     8     2     2
 -0.0018526634     1     8     2     3
 -0.0010957161     1     8     2     4
 -0.0001939272     1     8     2     6
 -0.0002558385     1     8     2     7
 0.0001372049     1     8     2     9
 -0.0004333037     1     8     2    10
 0.0795842151     1     8     3     1
 -0.0071751003     1     8     3     2
 -0.0005765387     1     8     3     3
 0.0019943306     1     8     3     4
 0.0016919618     1     8     3     6
 -0.0008585615     1     8     3     7
 -0.0004587400     1     8     3     9
 -0.0018787320     1     8     3    10
 0.0934608714     1     8     4     1
 -0.0087712820     1     8     4     2
 0.0044379212     1     8     4     3
 -0.0040586842     1     8     4     4
 0.0011125398     1     8     4     6
 0.0002032556     1     8     4     7
 -0.0017318564     1     8     4     9
 0.0015681635     1     8     4    10
 -0.0057379993     1     8     5     5
 -0.0035468045     1     8     5    11
 0.1290950161     1     8     6     1
 -0.0043676460     1     8     6     2
 0.0002640403     1     8     6     3
 -0.0028037246     1     8     6     4
 0.0008729577     1     8     6     6
 -0.0000278725     1     8     6     7
 -0.0008579707     1     8     6     9
 0.0004329246     1     8     6    10
 0.0751724344     1     8     7     1
 -0.0035291315     1     8     7     2
 -0.0007894819     1     8     7     3
 -0.0011149856     1     8     7     4
 0.0008803694     1     8     7     6
 -0.0008351038     1     8     7     7
 -0.0007592892     1     8     7     9
 -0.0002151399     1     8     7    10
 -0.3903323365     1     8     8     1
 0.0044519873     1     8     8     2
 0.0019947162     1     8     8     3
 0.0044806161     1     8     8     4
 0.0001665146     1     8     8     6
 0.0011537581     1     8     8     7
 0.0012969988     1     8     8     9
 -0.0007056066     1     8     8    10
 0.0113581540     1     8     9     1
 -0.0013235215     1     8     9     2
 -0.0001092375     1     8     9     3
 0.0000345575     1     8     9     4
 0.0004338371     1     8     9     6
 -0.0004028218     1     8     9     7
 0.0000371537     1     8     9     9
 -0.0008630071     1     8     9    10
 -0.0255785308     1     8    10     1
 0.0023190574     1     8    10     2
 -0.0012652624     1     8    10     3
 0.0022638088     1     8    10     4
 -0.0003323529     1     8    10     6
 0.0000783866     1     8    10     7
 0.0003411910     1     8    10     9
 -0.0018108480     1     8    10    10
 -0.0025372202     1     8    11     5
 -0.0007221732     1     8    11    11
 -0.0667193202     1     9     2     1
 -0.0000186055     1     9     2     2
 0.0008052823     1     9     2     3
 0.0007114785     1     9     2     4
 0.0001972391     1     9     2     6
 0.0001193435     1     9     2     7
 -0.0001372049     1     9     2     8
 -0.0002952714     1     9     2    10
 -0.0187276346     1     9     3     1
 0.0036202328     1     9     3     2
 -0.0006086411     1     9     3     3
 -0.0005941821     1     9     3     4
 -0.0009544591     1     9     3     6
 0.0000733005     1     9     3     7
 0.0004587400     1     9     3     8
 0.0004399060     1     9     3    10
 -0.0440470875     1     9     4     1
 0.0019748008     1     9     4     2
 -0.0012084444     1     9     4     3
 -0.0052604830     1     9     4     4
 -0.0022738463     1     9     4     6
 -0.0006925793     1     9     4     7
 0.0017318564     1     9     4     8
 0.0026427466     1     9     4    10
 -0.0077383169     1     9     5     5
 -0.0039286797     1     9     5    11
 0.0254095845     1     9     6     1
 0.0010027582     1     9     6     2
 -0.0007439358     1     9     6     3
 -0.0012492904     1     9     6     4
 -0.0011228875     1     9     6     6
 -0.0005831347     1     9     6     7
 0.0008579707     1     9     6     8
 0.0007221415     1     9     6    10
 -0.0472202826     1     9     7     1
 0.0015213094     1     9     7     2
 -0.0015492343     1     9     7     3
 -0.0001192854     1     9     7     4
 -0.0009434563     1     9     7     6
 -0.0004834626     1     9     7     7
 0.0007592892     1     9     7     8
 -0.0001518372     1     9     7    10
 0.0113581540     1     9     8     1
 -0.0014651124     1     9     8     2
 0.0003106533     1     9     8     3
 0.0017509109     1     9     8     4
 0.0012919633     1     9     8     6
 0.0003584164     1     9     8     7
 -0.0012969988     1     9     8     8
 -0.0012053369     1     9     8    10
 -0.3711172887     1     9     9     1
 0.0006104114     1     9     9     2
 -0.0008230430     1     9     9     3
 0.0010155870     1     9     9     4
 0.0001150905     1     9     9     6
 -0.0000772963     1     9     9     7
 -0.0000371537     1     9     9     8
 -0.0003183539     1     9     9    10
 -0.0142294422     1     9    10     1
 -0.0003508300     1     9    10     2
 -0.0025242844     1     9    10     3
 0.0031290393     1     9    10     4
 0.0007862150     1     9    10     6
 -0.0007455036     1     9    10     7
 -0.0003411910     1     9    10     8
 -0.0023111346     1     9    10    10
 -0.0030707545     1     9    11     5
 -0.0020968345     1     9    11    11
 -0.0265507516     1    10     2     1
 0.0038759001     1    10     2     2
 0.0022932379     1    10     2     3
 -0.0027932957     1    10     2     4
 -0.0009249840     1    10     2     6
 0.0003423348     1    10     2     7
 0.0004333037     1    10     2     8
 0.0002952714     1    10     2     9
 -0.1079097299     1    10     3     1
 0.0102592321     1    10     3     2
 0.0017786545     1    10     3     3
 0.0014359287     1    10     3     4
 -0.0020465410     1    10     3     6
 0.0006327322     1    10     3     7
 0.0018787320     1    10     3     8
 -0.0004399060     1    10     3     9
 0.2030171528     1    10     4     1
 -0.0167600436     1    10     4     2
 0.0012741251     1    10     4     3
 -0.0039509082     1    10     4     4
 0.0029209667     1    10     4     6
 -0.0011419997     1    10     4     7
 -0.0015681635     1    10     4     8
 -0.0026427466     1    10     4     9
 0.0009304445     1    10     5     5
 0.0002216903     1    10     5    11
 0.0758392135     1    10     6     1
 -0.0046714967     1    10     6     2
 0.0011091941     1    10     6     3
 -0.0028302453     1    10     6     4
 0.0011695162     1    10     6     6
 -0.0005312425     1    10     6     7
 -0.0004329246     1    10     6     8
 -0.0007221415     1    10     6     9
 -0.0515712098     1    10     7     1
 0.0022492252     1    10     7     2
 -0.0007092093     1    10     7     3
 0.0011690861     1    10     7     4
 -0.0006574125     1    10     7     6
 0.0006863520     1    10     7     7
 0.0002151399     1    10     7     8
 0.0001518372     1    10     7     9
 -0.0255785308     1    10     8     1
 0.0027571039     1    10     8     2
 0.0006845524     1    10     8     3
 0.0006971588     1    10     8     4
 -0.0007657648     1    10     8     6
 0.0002924752     1    10     8     7
 0.0007056066     1    10     8     8
 0.0012053369     1    10     8     9
 -0.0142294422     1    10     9     1
 -0.0000678077     1    10     9     2
 -0.0030382331     1    10     9     3
 0.0004452143     1    10     9     4
 0.0000671023     1    10     9     6
 -0.0005917428     1    10     9     7
 0.0008630071     1    10     9     8
 0.0003183539     1    10     9     9
 -0.4701031450     1    10    10     1
 0.0108420135     1    10    10     2
 -0.0024791385     1    10    10     3
 0.0017192777     1    10    10     4
 -0.0039241982     1    10    10     6
 0.0007711841     1    10    10     7
 0.0018108480     1    10    10     8
 0.0023111346     1    10    10     9
 0.0001404855     1    10    11     5
 0.0003724945     1    10    11    11
 0.0043377977     1    11     2     5
 -0.0016873936     1    11     3     5
 -0.0003217933     1    11     4     5
 -0.2553030167     1    11     5     1
 0.0217529052     1    11     5     2
 -0.0038665450     1    11     5     3
 0.0046174476     1    11     5     4
 -0.0050307525     1    11     5     6
 0.0005722950     1    11     5     7
 0.0035468045     1    11     5     8
 0.0039286797     1    11     5     9
 -0.0002216903     1    11     5    10
 0.0014277317     1    11     6     5
 -0.0006829614     1    11     7     5
 0.0010822019     1    11     8     5
 0.0008998190     1    11     9     5
 -0.0000216387     1    11    10     5
 -0.4950720092     1    11    11     1
 0.0111188945     1    11    11     2
 0.0000158899     1    11    11     3
 0.0044100626     1    11    11     4
 -0.0030619958     1    11    11     6
 0.0014500693     1    11    11     7
 0.0007221732     1    11    11     8
 0.0020968345     1    11    11     9
 -0.0003724945     1    11    11    10
 -0.9899388271     2     1     1     2
 0.0165739397     2     1     1     3
 -0.0761021966     2     1     1     4
 0.1234134220     2     1     1     6
 -0.0426593755     2     1     1     7
 -0.0545268181     2     1     1     8
 -0.0667193202     2     1     1     9
 -0.0265507516     2     1     1    10
 -0.0038051999     2     1     3     2
 -0.0303115732     2     1     3     3
 0.0030376419     2     1     3     4
 -0.0024189833     2     1     3     6
 -0.0087866492     2     1     3     7
 0.0049264806     2     1     3     8
 -0.0025910454     2     1     3     9
 -0.0073687673     2     1     3    10
 0.0040175940     2     1     4     2
 0.0034705240     2     1     4     3
 -0.0332929495     2     1     4     4
 -0.0090490781     2     1     4     6
 -0.0013495737     2     1     4     7
 0.0071314150     2     1     4     8
 -0.0011553549     2     1     4     9
 0.0128757461     2     1     4    10
 -0.0419737770     2     1     5     5
 -0.0160979559     2     1     5    11
 0.0005239836     2     1     6     2
 -0.0037349985     2     1     6     3
 -0.0103849606     2     1     6     4
 -0.0046038949     2     1     6     6
 -0.0024866793     2     1     6     7
 0.0041720224     2     1     6     8
 -0.0007843120     2     1     6     9
 0.0037359261     2     1     6    10
 -0.0012297570     2     1     7     2
 -0.0113154988     2     1     7     3
 -0.0019950832     2     1     7     4
 -0.0023794671     2     1     7     6
 -0.0043974123     2     1     7     7
 0.0032614753     2     1     7     8
 -0.0013900736     2     1     7     9
 -0.0019077170     2     1     7    10
 -0.0000461790     2     1     8     2
 0.0071751003     2     1     8     3
 0.0087712820     2     1     8     4
 0.0043676460     2     1     8     6
 0.0035291315     2     1     8     7
 -0.0044519873     2     1     8     8
 0.0013235215     2     1     8     9
 -0.0023190574     2     1     8    10
 0.0000186055     2     1     9     2
 -0.0036202328     2     1     9     3
 -0.0019748008     2     1     9     4
 -0.0010027582     2     1     9     6
 -0.0015213094     2     1     9     7
 0.0014651124     2     1     9     8
 -0.0006104114     2     1     9     9
 0.0003508300     2     1     9    10
 -0.0038759001     2     1    10     2
 -0.0102592321     2     1    10     3
 0.0167600436     2     1    10     4
 0.0046714967     2     1    10     6
 -0.0022492252     2     1    10     7
 -0.0027571039     2     1    10     8
 0.0000678077     2     1    10     9
 -0.0108420135     2     1    10    10
 -0.0217529052     2     1    11     5
 -0.0111188945     2     1    11    11
 0.9899388271     2     2     1     1
 0.0038051999     2     2     1     3
 -0.0040175940     2     2     1     4
 -0.0005239836     2     2     1     6
 0.0012297570     2     2     1     7
 0.0000461790     2     2     1     8
 -0.0000186055     2     2     1     9
 0.0038759001     2     2     1    10
 0.0038051999     2     2     3     1
 0.5149687817     2     2     3     3
 -0.0190794552     2     2     3     4
 0.0277764787     2     2     3     6
 0.0625090977     2     2     3     7
 -0.0247785226     2     2     3     8
 -0.0032629383     2     2     3     9
 0.0364449197     2     2     3    10
 -0.0040175940     2     2     4     1
 -0.0190794552     2     2     4     3
 0.5316737146     2     2     4     4
 0.0584341209     2     2     4     6
 0.0171216993     2     2     4     7
 -0.0351722612     2     2     4     8
 0.0186015118     2     2     4     9
 -0.0801226757     2     2     4    10
 0.5770720369     2     2     5     5
 0.1009168695     2     2     5    11
 -0.0005239836     2     2     6     1
 0.0277764787     2     2     6     3
 0.0584341209     2     2     6     4
 0.3005333151     2     2     6     6
 0.0049695800     2     2     6     7
 -0.0748711518     2     2     6     8
 -0.0150034411     2     2     6     9
 -0.0399902059     2     2     6    10
 0.0012297570     2     2     7     1
 0.0625090977     2     2     7     3
 0.0171216993     2     2     7     4
 0.0049695800     2     2     7     6
 0.2682227297     2     2     7     7
 -0.0466371803     2     2     7     8
 0.0290506106     2     2     7     9
 0.0347272822     2     2     7    10
 0.0000461790     2     2     8     1
 -0.0247785226     2     2     8     3
 -0.0351722612     2     2     8     4