&FCI NORB= 14,NELEC= 10,MS2=0,
 ORBSYM=1,1,1,1,1,1,1,1,1,1,1,1,1,1
 ISYM=1,
&END
 0.9838988366     1     1     2     2
 -0.0672815421     1     1     2     4
 -0.1288891686     1     1     2     6
 -0.0353302023     1     1     2     9
 0.1109445059     1     1     2    10
 0.0745609732     1     1     2    12
 0.8691907929     1     1     3     3
 -0.1491598342     1     1     3     7
 -0.0785701683     1     1     3     8
 -0.2337957940     1     1     3    13
 -0.0672815421     1     1     4     2
 0.9507970142     1     1     4     4
 -0.0685158989     1     1     4     6
 0.1672093440     1     1     4     9
 0.1631296608     1     1     4    10
 0.0515880397     1     1     4    12
 0.9986396176     1     1     5     5
 0.2954139268     1     1     5    11
 -0.1288891686     1     1     6     2
 -0.0685158989     1     1     6     4
 0.3154820990     1     1     6     6
 -0.0074221011     1     1     6     9
 -0.1152688179     1     1     6    10
 -0.0619893813     1     1     6    12
 -0.1491598342     1     1     7     3
 0.2838324347     1     1     7     7
 0.0652413388     1     1     7     8
 0.1475152738     1     1     7    13
 -0.0785701683     1     1     8     3
 0.0652413388     1     1     8     7
 0.3895229324     1     1     8     8
 0.0794339542     1     1     8    13
 -0.0353302023     1     1     9     2
 0.1672093440     1     1     9     4
 -0.0074221011     1     1     9     6
 0.3825968251     1     1     9     9
 0.0347494911     1     1     9    10
 0.0247454422     1     1     9    12
 0.1109445059     1     1    10     2
 0.1631296608     1     1    10     4
 -0.1152688179     1     1    10     6
 0.0347494911     1     1    10     9
 0.4569496490     1     1    10    10
 0.0437185368     1     1    10    12
 0.2954139268     1     1    11     5
 0.5396248230     1     1    11    11
 0.0745609732     1     1    12     2
 0.0515880397     1     1    12     4
 -0.0619893813     1     1    12     6
 0.0247454422     1     1    12     9
 0.0437185368     1     1    12    10
 0.3784590243     1     1    12    12
 -0.2337957940     1     1    13     3
 0.1475152738     1     1    13     7
 0.0794339542     1     1    13     8
 0.4774586631     1     1    13    13
 0.3622435327     1     1    14    14
 -0.9838988366     1     2     2     1
 -0.0069934803     1     2     2     4
 0.0013757632     1     2     2     6
 -0.0029891088     1     2     2     9
 -0.0036728102     1     2     2    10
 -0.0015953019     1     2     2    12
 -0.0309703813     1     2     3     3
 0.0109217892     1     2     3     7
 0.0087305537     1     2     3     8
 0.0212481306     1     2     3    13
 0.0672815421     1     2     4     1
 -0.0359778429     1     2     4     4
 0.0063764235     1     2     4     6
 -0.0118448791     1     2     4     9
 -0.0150693006     1     2     4    10
 -0.0065028821     1     2     4    12
 -0.0409278640     1     2     5     5
 -0.0243083746     1     2     5    11
 0.1288891686     1     2     6     1
 0.0061639599     1     2     6     4
 -0.0013482586     1     2     6     6
 0.0021832400     1     2     6     9
 0.0032396388     1     2     6    10
 0.0014010437     1     2     6    12
 0.0081024918     1     2     7     3
 -0.0034169995     1     2     7     7
 -0.0026815860     1     2     7     8
 -0.0068828608     1     2     7    13
 0.0058174979     1     2     8     3
 -0.0023610475     1     2     8     7
 -0.0020155237     1     2     8     8
 -0.0043663377     1     2     8    13
 0.0353302023     1     2     9     1
 -0.0087055623     1     2     9     4
 0.0014919583     1     2     9     6
 -0.0039760635     1     2     9     9
 -0.0046536775     1     2     9    10
 -0.0014687617     1     2     9    12
 -0.1109445059     1     2    10     1
 -0.0123719703     1     2    10     4
 0.0026614373     1     2    10     6
 -0.0053022436     1     2    10     9
 -0.0064026680     1     2    10    10
 -0.0025622168     1     2    10    12
 -0.0178804282     1     2    11     5
 -0.0136025067     1     2    11    11
 -0.0745609732     1     2    12     1
 -0.0049459275     1     2    12     4
 0.0010443812     1     2    12     6
 -0.0015773638     1     2    12     9
 -0.0023253089     1     2    12    10
 -0.0008819935     1     2    12    12
 0.0143489485     1     2    13     3
 -0.0062765163     1     2    13     7
 -0.0045291195     1     2    13     8
 -0.0121656402     1     2    13    13
 0.0002558800     1     2    14    14
 0.0020928183     1     3     2     7
 0.0024047823     1     3     2     8
 0.0056085261     1     3     2    13
 -0.8691907929     1     3     3     1
 0.0309703813     1     3     3     2
 -0.0104971967     1     3     3     4
 -0.0041190340     1     3     3     6
 -0.0027882062     1     3     3     9
 -0.0006401118     1     3     3    10
 0.0042433889     1     3     3    12
 0.0010179061     1     3     4     7
 0.0040346303     1     3     4     8
 0.0013964159     1     3     4    13
 0.0033290645     1     3     5    14
 0.0018412391     1     3     6     7
 -0.0004174540     1     3     6     8
 0.0016645748     1     3     6    13
 0.1491598342     1     3     7     1
 -0.0081024918     1     3     7     2
 0.0028593309     1     3     7     4
 0.0036306385     1     3     7     6
 0.0012712613     1     3     7     9
 -0.0019391759     1     3     7    10
 -0.0011714617     1     3     7    12
 0.0785701683     1     3     8     1
 -0.0058174979     1     3     8     2
 0.0019031028     1     3     8     4
 0.0017505735     1     3     8     6
 -0.0010222454     1     3     8     9
 -0.0040315162     1     3     8    10
 -0.0026897239     1     3     8    12
 0.0009070426     1     3     9     7
 -0.0000445230     1     3     9     8
 0.0028581530     1     3     9    13
 -0.0014314659     1     3    10     7
 -0.0018388867     1     3    10     8
 -0.0032764734     1     3    10    13
 -0.0008691433     1     3    11    14
 0.0006574402     1     3    12     7
 -0.0005977555     1     3    12     8
 0.0004760183     1     3    12    13
 0.2337957940     1     3    13     1
 -0.0143489485     1     3    13     2
 0.0049642222     1     3    13     4
 0.0051964944     1     3    13     6
 0.0035726506     1     3    13     9
 -0.0043438259     1     3    13    10
 -0.0031072395     1     3    13    12
 -0.0003105212     1     3    14     5
 -0.0032129856     1     3    14    11
 0.0672815421     1     4     2     1
 0.0069934803     1     4     2     2
 -0.0003196907     1     4     2     6
 -0.0023476962     1     4     2     9
 -0.0016213537     1     4     2    10
 -0.0011216416     1     4     2    12
 0.0104971967     1     4     3     3
 -0.0020142496     1     4     3     7
 0.0020786310     1     4     3     8
 -0.0039191449     1     4     3    13
 -0.9507970142     1     4     4     1
 0.0359778429     1     4     4     2
 -0.0082141151     1     4     4     6
 -0.0005840044     1     4     4     9
 0.0102313054     1     4     4    10
 0.0021461357     1     4     4    12
 0.0136542791     1     4     5     5
 0.0077880606     1     4     5    11
 0.0685158989     1     4     6     1
 -0.0061639599     1     4     6     2
 0.0032822102     1     4     6     6
 -0.0014099458     1     4     6     9
 -0.0035650706     1     4     6    10
 -0.0014561631     1     4     6    12
 -0.0028593309     1     4     7     3
 0.0020965042     1     4     7     7
 0.0009590197     1     4     7     8
 0.0024349236     1     4     7    13
 -0.0019031028     1     4     8     3
 0.0021766490     1     4     8     7
 0.0013012834     1     4     8     8
 0.0052962720     1     4     8    13
 -0.1672093440     1     4     9     1
 0.0087055623     1     4     9     2
 -0.0042365201     1     4     9     6
 -0.0010121345     1     4     9     9
 0.0018983283     1     4     9    10
 0.0032189190     1     4     9    12
 -0.1631296608     1     4    10     1
 0.0123719703     1     4    10     2
 -0.0052061647     1     4    10     6
 -0.0017623281     1     4    10     9
 0.0067976811     1     4    10    10
 0.0030709813     1     4    10    12
 0.0062635179     1     4    11     5
 0.0044957562     1     4    11    11
 -0.0515880397     1     4    12     1
 0.0049459275     1     4    12     2
 -0.0026163391     1     4    12     6
 0.0024866378     1     4    12     9
 0.0041217050     1     4    12    10
 0.0032053661     1     4    12    12
 -0.0049642222     1     4    13     3
 0.0022295957     1     4    13     7
 0.0027887926     1     4    13     8
 0.0041516201     1     4    13    13
 0.0024007987     1     4    14    14
 -0.0048574641     1     5     2    11
 0.0037164477     1     5     3    14
 0.0010934286     1     5     4    11
 -0.9986396176     1     5     5     1
 0.0409278640     1     5     5     2
 -0.0136542791     1     5     5     4
 -0.0078105544     1     5     5     6
 -0.0074625623     1     5     5     9
 0.0080835985     1     5     5    10
 0.0061181347     1     5     5    12
 -0.0021547963     1     5     6    11
 0.0004214350     1     5     7    14
 -0.0003876980     1     5     8    14
 0.0014149892     1     5     9    11
 -0.0011794693     1     5    10    11
 -0.2954139268     1     5    11     1
 0.0178804282     1     5    11     2
 -0.0062635179     1     5    11     4
 -0.0069831391     1     5    11     6
 -0.0029801604     1     5    11     9
 0.0039980523     1     5    11    10
 0.0033171347     1     5    11    12
 -0.0004980912     1     5    12    11
 -0.0000193667     1     5    13    14
 0.0003105212     1     5    14     3
 0.0016438083     1     5    14     7
 0.0005035122     1     5    14     8
 0.0023355310     1     5    14    13
 0.1288891686     1     6     2     1
 -0.0013757632     1     6     2     2
 0.0003196907     1     6     2     4
 0.0007051080     1     6     2     9
 0.0006080510     1     6     2    10
 0.0003735490     1     6     2    12
 0.0041190340     1     6     3     3
 -0.0017904998     1     6     3     7
 -0.0021939848     1     6     3     8
 -0.0035811479     1     6     3    13
 0.0685158989     1     6     4     1
 -0.0063764235     1     6     4     2
 0.0082141151     1     6     4     4
 0.0028779786     1     6     4     9
 0.0017019887     1     6     4    10
 0.0011776137     1     6     4    12
 0.0078105544     1     6     5     5
 0.0048145870     1     6     5    11
 -0.3154820990     1     6     6     1
 0.0013482586     1     6     6     2
 -0.0032822102     1     6     6     4
 -0.0008490618     1     6     6     9
 -0.0008141407     1     6     6    10
 -0.0003303504     1     6     6    12
 -0.0036306385     1     6     7     3
 0.0011673058     1     6     7     7
 0.0009986611     1     6     7     8
 0.0026001500     1     6     7    13
 -0.0017505735     1     6     8     3
 0.0003743542     1     6     8     7
 0.0003515441     1     6     8     8
 0.0004847563     1     6     8    13
 0.0074221011     1     6     9     1
 -0.0014919583     1     6     9     2
 0.0042365201     1     6     9     4
 0.0017734344     1     6     9     9
 0.0016858374     1     6     9    10
 0.0001291453     1     6     9    12
 0.1152688179     1     6    10     1
 -0.0026614373     1     6    10     2
 0.0052061647     1     6    10     4
 0.0022850399     1     6    10     9
 0.0010822425     1     6    10    10
 0.0003714564     1     6    10    12
 0.0069831391     1     6    11     5
 0.0045689650     1     6    11    11
 0.0619893813     1     6    12     1
 -0.0010443812     1     6    12     2
 0.0026163391     1     6    12     4
 0.0003875230     1     6    12     9
 0.0003790074     1     6    12    10
 -0.0001917917     1     6    12    12
 -0.0051964944     1     6    13     3
 0.0019526082     1     6    13     7
 0.0012195674     1     6    13     8
 0.0038095587     1     6    13    13
 -0.0005345743     1     6    14    14
 -0.0020928183     1     7     2     3
 -0.0003199351     1     7     2     8
 -0.0005768280     1     7     2    13
 0.1491598342     1     7     3     1
 -0.0109217892     1     7     3     2
 0.0020142496     1     7     3     4
 0.0017904998     1     7     3     6
 0.0003883401     1     7     3     9
 -0.0004618996     1     7     3    10
 -0.0018275200     1     7     3    12
 -0.0010179061     1     7     4     3
 -0.0012358601     1     7     4     8
 0.0001910093     1     7     4    13
 -0.0012412910     1     7     5    14
 -0.0018412391     1     7     6     3
 0.0006231014     1     7     6     8
 0.0006437241     1     7     6    13
 -0.2838324347     1     7     7     1
 0.0034169995     1     7     7     2
 -0.0020965042     1     7     7     4
 -0.0011673058     1     7     7     6
 -0.0008002806     1     7     7     9
 0.0003363299     1     7     7    10
 0.0002936656     1     7     7    12
 -0.0652413388     1     7     8     1
 0.0023610475     1     7     8     2
 -0.0021766490     1     7     8     4
 -0.0003743542     1     7     8     6
 -0.0001348455     1     7     8     9
 0.0008192829     1     7     8    10
 0.0007300786     1     7     8    12
 -0.0009070426     1     7     9     3
 0.0002564802     1     7     9     8
 -0.0003956022     1     7     9    13
 0.0014314659     1     7    10     3
 0.0002842993     1     7    10     8
 0.0001905976     1     7    10    13
 0.0003092833     1     7    11    14
 -0.0006574402     1     7    12     3
 0.0003838552     1     7    12     8
 0.0002740587     1     7    12    13
 -0.1475152738     1     7    13     1
 0.0062765163     1     7    13     2
 -0.0022295957     1     7    13     4
 -0.0019526082     1     7    13     6
 -0.0014035940     1     7    13     9
 0.0015826162     1     7    13    10
 0.0011621348     1     7    13    12
 -0.0016438083     1     7    14     5
 0.0000617967     1     7    14    11
 -0.0024047823     1     8     2     3
 0.0003199351     1     8     2     7
 0.0001825906     1     8     2    13
 0.0785701683     1     8     3     1
 -0.0087305537     1     8     3     2
 -0.0020786310     1     8     3     4
 0.0021939848     1     8     3     6
 -0.0009537128     1     8     3     9
 -0.0022060207     1     8     3    10
 -0.0021032410     1     8     3    12
 -0.0040346303     1     8     4     3
 0.0012358601     1     8     4     7
 0.0025211554     1     8     4    13
 -0.0008721796     1     8     5    14
 0.0004174540     1     8     6     3
 -0.0006231014     1     8     6     7
 -0.0007365800     1     8     6    13
 -0.0652413388     1     8     7     1
 0.0026815860     1     8     7     2
 -0.0009590197     1     8     7     4
 -0.0009986611     1     8     7     6
 -0.0003899472     1     8     7     9
 0.0005377314     1     8     7    10
 0.0003487413     1     8     7    12
 -0.3895229324     1     8     8     1
 0.0020155237     1     8     8     2
 -0.0013012834     1     8     8     4
 -0.0003515441     1     8     8     6
 0.0000184522     1     8     8     9
 0.0007829694     1     8     8    10
 0.0005931147     1     8     8    12
 0.0000445230     1     8     9     3
 -0.0002564802     1     8     9     7
 -0.0007774064     1     8     9    13
 0.0018388867     1     8    10     3
 -0.0002842993     1     8    10     7
 -0.0003976365     1     8    10    13
 0.0002050863     1     8    11    14
 0.0005977555     1     8    12     3
 -0.0003838552     1     8    12     7
 -0.0005188772     1     8    12    13
 -0.0794339542     1     8    13     1
 0.0045291195     1     8    13     2
 -0.0027887926     1     8    13     4
 -0.0012195674     1     8    13     6
 -0.0014234284     1     8    13     9
 0.0006446841     1     8    13    10
 0.0006658017     1     8    13    12
 -0.0005035122     1     8    14     5
 0.0004644473     1     8    14    11
 0.0353302023     1     9     2     1
 0.0029891088     1     9     2     2
 0.0023476962     1     9     2     4
 -0.0007051080     1     9     2     6
 0.0006828621     1     9     2    10
 0.0001362829     1     9     2    12
 0.0027882062     1     9     3     3
 -0.0003883401     1     9     3     7
 0.0009537128     1     9     3     8
 -0.0008065940     1     9     3    13
 -0.1672093440     1     9     4     1
 0.0118448791     1     9     4     2
 0.0005840044     1     9     4     4
 -0.0028779786     1     9     4     6
 0.0037189560     1     9     4    10
 0.0007608154     1     9     4    12
 0.0074625623     1     9     5     5
 0.0044763875     1     9     5    11
 0.0074221011     1     9     6     1
 -0.0021832400     1     9     6     2
 0.0014099458     1     9     6     4
 0.0008490618     1     9     6     6
 -0.0006016329     1     9     6    10
 -0.0002592823     1     9     6    12
 -0.0012712613     1     9     7     3
 0.0008002806     1     9     7     7
 0.0003899472     1     9     7     8
 0.0010074309     1     9     7    13
 0.0010222454     1     9     8     3
 0.0001348455     1     9     8     7
 -0.0000184522     1     9     8     8
 0.0006431731     1     9     8    13
 -0.3825968251     1     9     9     1
 0.0039760635     1     9     9     2
 0.0010121345     1     9     9     4
 -0.0017734344     1     9     9     6
 0.0012845276     1     9     9    10
 0.0013794034     1     9     9    12
 -0.0347494911     1     9    10     1
 0.0053022436     1     9    10     2
 0.0017623281     1     9    10     4
 -0.0022850399     1     9    10     6
 0.0032985040     1     9    10    10
 0.0014704253     1     9    10    12
 0.0029801604     1     9    11     5
 0.0019963789     1     9    11    11
 -0.0247454422     1     9    12     1
 0.0015773638     1     9    12     2
 -0.0024866378     1     9    12     4
 -0.0003875230     1     9    12     6
 0.0002837013     1     9    12    10
 0.0006290116     1     9    12    12
 -0.0035726506     1     9    13     3
 0.0014035940     1     9    13     7
 0.0014234284     1     9    13     8
 0.0026523116     1     9    13    13
 0.0008046112     1     9    14    14
 -0.1109445059     1    10     2     1
 0.0036728102     1    10     2     2
 0.0016213537     1    10     2     4
 -0.0006080510     1    10     2     6
 -0.0006828621     1    10     2     9
 -0.0002275237     1    10     2    12
 0.0006401118     1    10     3     3
 0.0004618996     1    10     3     7
 0.0022060207     1    10     3     8
 0.0010287463     1    10     3    13
 -0.1631296608     1    10     4     1
 0.0150693006     1    10     4     2
 -0.0102313054     1    10     4     4
 -0.0017019887     1    10     4     6
 -0.0037189560     1    10     4     9
 -0.0010229695     1    10     4    12
 -0.0080835985     1    10     5     5
 -0.0051067726     1    10     5    11
 0.1152688179     1    10     6     1
 -0.0032396388     1    10     6     2
 0.0035650706     1    10     6     4
 0.0008141407     1    10     6     6
 0.0006016329     1    10     6     9
 -0.0000077769     1    10     6    12
 0.0019391759     1    10     7     3
 -0.0003363299     1    10     7     7
 -0.0005377314     1    10     7     8
 -0.0013924093     1    10     7    13
 0.0040315162     1    10     8     3
 -0.0008192829     1    10     8     7
 -0.0007829694     1    10     8     8
 -0.0010422657     1    10     8    13
 -0.0347494911     1    10     9     1
 0.0046536775     1    10     9     2
 -0.0018983283     1    10     9     4
 -0.0016858374     1    10     9     6
 -0.0012845276     1    10     9     9
 0.0011857099     1    10     9    12
 -0.4569496490     1    10    10     1
 0.0064026680     1    10    10     2
 -0.0067976811     1    10    10     4
 -0.0010822425     1    10    10     6
 -0.0032985040     1    10    10     9
 0.0001698790     1    10    10    12
 -0.0039980523     1    10    11     5
 -0.0027146683     1    10    11    11
 -0.0437185368     1    10    12     1
 0.0023253089     1    10    12     2
 -0.0041217050     1    10    12     4
 -0.0003790074     1    10    12     6
 -0.0002837013     1    10    12     9
 0.0007199938     1    10    12    12
 0.0043438259     1    10    13     3
 -0.0015826162     1    10    13     7
 -0.0006446841     1    10    13     8
 -0.0031309401     1    10    13    13
 0.0011297718     1    10    14    14
 0.0048574641     1    11     2     5
 0.0023096089     1    11     3    14
 -0.0010934286     1    11     4     5
 -0.2954139268     1    11     5     1
 0.0243083746     1    11     5     2
 -0.0077880606     1    11     5     4
 -0.0048145870     1    11     5     6
 -0.0044763875     1    11     5     9
 0.0051067726     1    11     5    10
 0.0037854441     1    11     5    12
 0.0021547963     1    11     6     5
 0.0002448596     1    11     7    14
 -0.0002585087     1    11     8    14
 -0.0014149892     1    11     9     5
 0.0011794693     1    11    10     5
 -0.5396248230     1    11    11     1
 0.0136025067     1    11    11     2
 -0.0044957562     1    11    11     4
 -0.0045689650     1    11    11     6
 -0.0019963789     1    11    11     9
 0.0027146683     1    11    11    10
 0.0022238941     1    11    11    12
 0.0004980912     1    11    12     5
 -0.0000201798     1    11    13    14
 0.0032129856     1    11    14     3
 -0.0000617967     1    11    14     7
 -0.0004644473     1    11    14     8
 -0.0005964362     1    11    14    13
 -0.0745609732     1    12     2     1
 0.0015953019     1    12     2     2
 0.0011216416     1    12     2     4
 -0.0003735490     1    12     2     6
 -0.0001362829     1    12     2     9
 0.0002275237     1    12     2    10
 -0.0042433889     1    12     3     3
 0.0018275200     1    12     3     7
 0.0021032410     1    12     3     8
 0.0035998706     1    12     3    13
 -0.0515880397     1    12     4     1
 0.0065028821     1    12     4     2
 -0.0021461357     1    12     4     4
 -0.0011776137     1    12     4     6
 -0.0007608154     1    12     4     9
 0.0010229695     1    12     4    10
 -0.0061181347     1    12     5     5
 -0.0037854441     1    12     5    11
 0.0619893813     1    12     6     1
 -0.0014010437     1    12     6     2
 0.0014561631     1    12     6     4
 0.0003303504     1    12     6     6
 0.0002592823     1    12     6     9
 0.0000077769     1    12     6    10
 0.0011714617     1    12     7     3
 -0.0002936656     1    12     7     7
 -0.0003487413     1    12     7     8
 -0.0008928092     1    12     7    13
 0.0026897239     1    12     8     3
 -0.0007300786     1    12     8     7
 -0.0005931147     1    12     8     8
 -0.0011843941     1    12     8    13
 -0.0247454422     1    12     9     1
 0.0014687617     1    12     9     2
 -0.0032189190     1    12     9     4
 -0.0001291453     1    12     9     6
 -0.0013794034     1    12     9     9
 -0.0011857099     1    12     9    10
 -0.0437185368     1    12    10     1
 0.0025622168     1    12    10     2
 -0.0030709813     1    12    10     4
 -0.0003714564     1    12    10     6
 -0.0014704253     1    12    10     9
 -0.0001698790     1    12    10    10
 -0.0033171347     1    12    11     5
 -0.0022238941     1    12    11    11
 -0.3784590243     1    12    12     1
 0.0008819935     1    12    12     2
 -0.0032053661     1    12    12     4
 0.0001917917     1    12    12     6
 -0.0006290116     1    12    12     9
 -0.0007199938     1    12    12    10
 0.0031072395     1    12    13     3
 -0.0011621348     1    12    13     7
 -0.0006658017     1    12    13     8
 -0.0022850897     1    12    13    13
 0.0004618780     1    12    14    14
 -0.0056085261     1    13     2     3
 0.0005768280     1    13     2     7
 -0.0001825906     1    13     2     8
 0.2337957940     1    13     3     1
 -0.0212481306     1    13     3     2
 0.0039191449     1    13     3     4
 0.0035811479     1    13     3     6
 0.0008065940     1    13     3     9
 -0.0010287463     1    13     3    10
 -0.0035998706     1    13     3    12
 -0.0013964159     1    13     4     3
 -0.0001910093     1    13     4     7
 -0.0025211554     1    13     4     8
 -0.0023747992     1    13     5    14
 -0.0016645748     1    13     6     3
 -0.0006437241     1    13     6     7
 0.0007365800     1    13     6     8
 -0.1475152738     1    13     7     1
 0.0068828608     1    13     7     2
 -0.0024349236     1    13     7     4
 -0.0026001500     1    13     7     6
 -0.0010074309     1    13     7     9
 0.0013924093     1    13     7    10
 0.0008928092     1    13     7    12
 -0.0794339542     1    13     8     1
 0.0043663377     1    13     8     2
 -0.0052962720     1    13     8     4
 -0.0004847563     1    13     8     6
 -0.0006431731     1    13     8     9
 0.0010422657     1    13     8    10
 0.0011843941     1    13     8    12
 -0.0028581530     1    13     9     3
 0.0003956022     1    13     9     7
 0.0007774064     1    13     9     8
 0.0032764734     1    13    10     3
 -0.0001905976     1    13    10     7
 0.0003976365     1    13    10     8
 0.0005747666     1    13    11    14
 -0.0004760183     1    13    12     3
 -0.0002740587     1    13    12     7
 0.0005188772     1    13    12     8
 -0.4774586631     1    13    13     1
 0.0121656402     1    13    13     2
 -0.0041516201     1    13    13     4
 -0.0038095587     1    13    13     6
 -0.0026523116     1    13    13     9
 0.0031309401     1    13    13    10
 0.0022850897     1    13    13    12
 -0.0023355310     1    13    14     5
 0.0005964362     1    13    14    11
 -0.0037164477     1    14     3     5
 -0.0023096089     1    14     3    11
 -0.0033290645     1    14     5     3
 0.0012412910     1    14     5     7
 0.0008721796     1    14     5     8
 0.0023747992     1    14     5    13
 -0.0004214350     1    14     7     5
 -0.0002448596     1    14     7    11
 0.0003876980     1    14     8     5
 0.0002585087     1    14     8    11
 0.0008691433     1    14    11     3
 -0.0003092833     1    14    11     7
 -0.0002050863     1    14    11     8
 -0.0005747666     1    14    11    13
 0.0000193667     1    14    13     5
 0.0000201798     1    14    13    11
 -0.3622435327     1    14    14     1
 -0.0002558800     1    14    14     2
 -0.0024007987     1    14    14     4
 0.0005345743     1    14    14     6
 -0.0008046112     1    14    14     9
 -0.0011297718     1    14    14    10
 -0.0004618780     1    14    14    12
 -0.9838988366     2     1     1     2
 0.0672815421     2     1     1     4
 0.1288891686     2     1     1     6
 0.0353302023     2     1     1     9
 -0.1109445059     2     1     1    10
 -0.0745609732     2     1     1    12
 -0.0309703813     2     1     3     3
 0.0081024918     2     1     3     7
 0.0058174979     2     1     3     8
 0.0143489485     2     1     3    13
 -0.0069934803     2     1     4     2
 -0.0359778429     2     1     4     4
 0.0061639599     2     1     4     6
 -0.0087055623     2     1     4     9
 -0.0123719703     2     1     4    10
 -0.0049459275     2     1     4    12
 -0.0409278640     2     1     5     5
 -0.0178804282     2     1     5    11
 0.0013757632     2     1     6     2
 0.0063764235     2     1     6     4
 -0.0013482586     2     1     6     6
 0.0014919583     2     1     6     9
 0.0026614373     2     1     6    10
 0.0010443812     2     1     6    12
 0.0109217892     2     1     7     3
 -0.0034169995     2     1     7     7
 -0.0023610475     2     1     7     8
 -0.0062765163     2     1     7    13
 0.0087305537     2     1     8     3
 -0.0026815860     2     1     8     7
 -0.0020155237     2     1     8     8
 -0.0045291195     2     1     8    13
 -0.0029891088     2     1     9     2
 -0.0118448791     2     1     9     4
 0.0021832400     2     1     9     6
 -0.0039760635     2     1     9     9
 -0.0053022436     2     1     9    10
 -0.0015773638     2     1     9    12
 -0.0036728102     2     1    10     2
 -0.0150693006     2     1    10     4
 0.0032396388     2     1    10     6
 -0.0046536775     2     1    10     9
 -0.0064026680     2     1    10    10
 -0.0023253089     2     1    10    12
 -0.0243083746     2     1    11     5
 -0.0136025067     2     1    11    11
 -0.0015953019     2     1    12     2
 -0.0065028821     2     1    12     4
 0.0014010437     2     1    12     6
 -0.0014687617     2     1    12     9
 -0.0025622168     2     1    12    10
 -0.0008819935     2     1    12    12
 0.0212481306     2     1    13     3
 -0.0068828608     2     1    13     7
 -0.0043663377     2     1    13     8
 -0.0121656402     2     1    13    13
 0.0002558800     2     1    14    14
 0.9838988366     2     2     1     1
 0.0069934803     2     2     1     4
 -0.0013757632     2     2     1     6
 0.0029891088     2     2     1     9
 0.0036728102     2     2     1    10
 0.0015953019     2     2     1    12
 0.5279906327     2     2     3     3
 -0.0613479501     2     2     3     7
 -0.0163804159     2     2     3     8
 -0.0832655777     2     2     3    13
 0.0069934803     2     2     4     1
 0.5508550711     2     2     4     4
 -0.0298330226     2     2     4     6
 0.0675457398     2     2     4     9
 0.0623721819     2     2     4    10
 0.0116104353     2     2     4    12
 0.5785989030     2     2     5     5
 0.1153793826     2     2     5    11
 -0.0013757632     2     2     6     1
 -0.0298330226     2     2     6     4
 0.2794076094     2     2     6     6
 -0.0082617039     2     2     6     9
 -0.0679454410     2     2     6    10
 -0.0355884539     2     2     6    12
 -0.0613479501     2     2     7     3
 0.2555467247     2     2     7     7
 0.0428930094     2     2     7     8
 0.0866838756     2     2     7    13
 -0.0163804159     2     2     8     3
 0.0428930094     2     2     8     7
 0.3578709509     2     2     8     8
 0.0440693891     2     2     8    13
 0.0029891088     2     2     9     1
 0.0675457398     2     2     9     4
 -0.0082617039     2     2     9     6
 0.3319627618     2     2     9     9
 -0.0012991161     2     2     9    10
 0.0243885760     2     2     9    12
 0.0036728102     2     2    10     1
 0.0623721819     2     2    10     4
 -0.0679454410     2     2    10     6
 -0.0012991161     2     2    10     9