&FCI NORB= 14,NELEC= 10,MS2=0,
 ORBSYM=1,1,1,1,1,1,1,1,1,1,1,1,1,1
 ISYM=1,
&END
 0.9844004431     1     1     2     2
 -0.0000000004     1     1     2     3
 0.0665027007     1     1     2     4
 0.1313504991     1     1     2     6
 -0.0000000093     1     1     2     7
 -0.0000000849     1     1     2     8
 0.0751767662     1     1     2     9
 0.0795170939     1     1     2    10
 -0.0000000038     1     1     2    12
 0.0854468111     1     1     2    13
 -0.0000000004     1     1     3     2
 0.8607991736     1     1     3     3
 -0.0000000131     1     1     3     4
 -0.0000000162     1     1     3     6
 -0.1511170196     1     1     3     7
 0.0851324859     1     1     3     8
 0.0000000474     1     1     3     9
 0.0000000258     1     1     3    10
 0.2331767770     1     1     3    12
 0.0000000492     1     1     3    13
 0.0665027007     1     1     4     2
 -0.0000000131     1     1     4     3
 0.9495767653     1     1     4     4
 -0.0720499963     1     1     4     6
 -0.0000000090     1     1     4     7
 0.0000000058     1     1     4     8
 0.0847669674     1     1     4     9
 -0.2216417404     1     1     4    10
 0.0000000204     1     1     4    12
 -0.0497522345     1     1     4    13
 0.9982758916     1     1     5     5
 -0.2975606040     1     1     5    11
 -0.0000000334     1     1     5    14
 0.1313504991     1     1     6     2
 -0.0000000162     1     1     6     3
 -0.0720499963     1     1     6     4
 0.3191100850     1     1     6     6
 0.0000000037     1     1     6     7
 -0.0000000766     1     1     6     8
 0.0411790885     1     1     6     9
 0.1075329423     1     1     6    10
 -0.0000000224     1     1     6    12
 0.0691996835     1     1     6    13
 -0.0000000093     1     1     7     2
 -0.1511170196     1     1     7     3
 -0.0000000090     1     1     7     4
 0.0000000037     1     1     7     6
 0.2855805382     1     1     7     7
 -0.0695062585     1     1     7     8
 -0.0000000475     1     1     7     9
 -0.0000000160     1     1     7    10
 -0.1487636222     1     1     7    12
 -0.0000000343     1     1     7    13
 -0.0000000849     1     1     8     2
 0.0851324859     1     1     8     3
 0.0000000058     1     1     8     4
 -0.0000000766     1     1     8     6
 -0.0695062585     1     1     8     7
 0.3912134937     1     1     8     8
 0.0000000108     1     1     8     9
 -0.0000000288     1     1     8    10
 0.0806257341     1     1     8    12
 0.0000000036     1     1     8    13
 0.0751767662     1     1     9     2
 0.0000000474     1     1     9     3
 0.0847669674     1     1     9     4
 0.0411790885     1     1     9     6
 -0.0000000475     1     1     9     7
 0.0000000108     1     1     9     8
 0.3716351552     1     1     9     9
 0.0020303108     1     1     9    10
 0.0000000604     1     1     9    12
 -0.0023946024     1     1     9    13
 0.0795170939     1     1    10     2
 0.0000000258     1     1    10     3
 -0.2216417404     1     1    10     4
 0.1075329423     1     1    10     6
 -0.0000000160     1     1    10     7
 -0.0000000288     1     1    10     8
 0.0020303108     1     1    10     9
 0.4690902876     1     1    10    10
 0.0000000115     1     1    10    12
 0.0511698146     1     1    10    13
 -0.2975606040     1     1    11     5
 0.5425014225     1     1    11    11
 0.0000000216     1     1    11    14
 -0.0000000038     1     1    12     2
 0.2331767770     1     1    12     3
 0.0000000204     1     1    12     4
 -0.0000000224     1     1    12     6
 -0.1487636222     1     1    12     7
 0.0806257341     1     1    12     8
 0.0000000604     1     1    12     9
 0.0000000115     1     1    12    10
 0.4763168342     1     1    12    12
 0.0000000224     1     1    12    13
 0.0854468111     1     1    13     2
 0.0000000492     1     1    13     3
 -0.0497522345     1     1    13     4
 0.0691996835     1     1    13     6
 -0.0000000343     1     1    13     7
 0.0000000036     1     1    13     8
 -0.0023946024     1     1    13     9
 0.0511698146     1     1    13    10
 0.0000000224     1     1    13    12
 0.3796580351     1     1    13    13
 -0.0000000334     1     1    14     5
 0.0000000216     1     1    14    11
 0.3610970006     1     1    14    14
 -0.9844004431     1     2     2     1
 -0.0000000012     1     2     2     3
 0.0062421780     1     2     2     4
 -0.0012262815     1     2     2     6
 0.0000000004     1     2     2     7
 0.0000000001     1     2     2     8
 0.0011454164     1     2     2     9
 -0.0040698643     1     2     2    10
 -0.0000000005     1     2     2    12
 -0.0014036694     1     2     2    13
 0.0000000004     1     2     3     1
 -0.0306610144     1     2     3     3
 0.0000000009     1     2     3     4
 0.0000000010     1     2     3     6
 0.0110555982     1     2     3     7
 -0.0091617422     1     2     3     8
 -0.0000000057     1     2     3     9
 -0.0000000030     1     2     3    10
 -0.0211363774     1     2     3    12
 -0.0000000047     1     2     3    13
 -0.0665027007     1     2     4     1
 0.0000000008     1     2     4     3
 -0.0362394145     1     2     4     4
 0.0065837869     1     2     4     6
 0.0000000005     1     2     4     7
 -0.0000000024     1     2     4     8
 -0.0047628076     1     2     4     9
 0.0187752199     1     2     4    10
 -0.0000000020     1     2     4    12
 0.0064395214     1     2     4    13
 -0.0411376597     1     2     5     5
 0.0245912475     1     2     5    11
 0.0000000028     1     2     5    14
 -0.1313504991     1     2     6     1
 0.0000000006     1     2     6     3
 0.0062625504     1     2     6     4
 -0.0014613822     1     2     6     6
 -0.0000000005     1     2     6     7
 0.0000000010     1     2     6     8
 0.0007152494     1     2     6     9
 -0.0039534006     1     2     6    10
 0.0000000011     1     2     6    12
 -0.0014546450     1     2     6    13
 0.0000000093     1     2     7     1
 0.0082162290     1     2     7     3
 0.0000000003     1     2     7     4
 -0.0000000006     1     2     7     6
 -0.0035765793     1     2     7     7
 0.0029191784     1     2     7     8
 0.0000000019     1     2     7     9
 0.0000000006     1     2     7    10
 0.0070342319     1     2     7    12
 0.0000000014     1     2     7    13
 0.0000000849     1     2     8     1
 -0.0061592638     1     2     8     3
 -0.0000000025     1     2     8     4
 0.0000000011     1     2     8     6
 0.0025991168     1     2     8     7
 -0.0022802736     1     2     8     8
 -0.0000000018     1     2     8     9
 0.0000000011     1     2     8    10
 -0.0047731423     1     2     8    12
 -0.0000000003     1     2     8    13
 -0.0751767662     1     2     9     1
 -0.0000000038     1     2     9     3
 -0.0029916426     1     2     9     4
 0.0003264817     1     2     9     6
 0.0000000016     1     2     9     7
 -0.0000000016     1     2     9     8
 -0.0006429081     1     2     9     9
 0.0020888227     1     2     9    10
 -0.0000000030     1     2     9    12
 0.0003204097     1     2     9    13
 -0.0795170939     1     2    10     1
 -0.0000000020     1     2    10     3
 0.0148993440     1     2    10     4
 -0.0031733276     1     2    10     6
 0.0000000004     1     2    10     7
 0.0000000005     1     2    10     8
 0.0027051740     1     2    10     9
 -0.0098360839     1     2    10    10
 -0.0000000004     1     2    10    12
 -0.0029282202     1     2    10    13
 0.0180950948     1     2    11     5
 -0.0138182812     1     2    11    11
 -0.0000000016     1     2    11    14
 0.0000000038     1     2    12     1
 -0.0142949479     1     2    12     3
 -0.0000000013     1     2    12     4
 0.0000000011     1     2    12     6
 0.0064174647     1     2    12     7
 -0.0048945419     1     2    12     8
 -0.0000000032     1     2    12     9
 -0.0000000005     1     2    12    10
 -0.0122399851     1     2    12    12
 -0.0000000023     1     2    12    13
 -0.0854468111     1     2    13     1
 -0.0000000032     1     2    13     3
 0.0049572358     1     2    13     4
 -0.0011281656     1     2    13     6
 0.0000000013     1     2    13     7
 -0.0000000005     1     2    13     8
 0.0005240493     1     2    13     9
 -0.0028261064     1     2    13    10
 -0.0000000024     1     2    13    12
 -0.0009803283     1     2    13    13
 0.0000000020     1     2    14     5
 -0.0000000015     1     2    14    11
 0.0001920094     1     2    14    14
 0.0000000004     1     3     2     1
 0.0000000012     1     3     2     2
 0.0000000002     1     3     2     4
 0.0000000003     1     3     2     6
 0.0021076204     1     3     2     7
 -0.0024692395     1     3     2     8
 -0.0000000016     1     3     2     9
 -0.0000000008     1     3     2    10
 -0.0055601750     1     3     2    12
 -0.0000000012     1     3     2    13
 -0.8607991736     1     3     3     1
 0.0306610144     1     3     3     2
 0.0094997869     1     3     3     4
 0.0041241993     1     3     3     6
 -0.0000000006     1     3     3     7
 -0.0000000011     1     3     3     8
 0.0017929499     1     3     3     9
 -0.0018062504     1     3     3    10
 -0.0000000002     1     3     3    12
 0.0045138904     1     3     3    13
 0.0000000131     1     3     4     1
 -0.0000000008     1     3     4     2
 0.0000000010     1     3     4     4
 -0.0000000006     1     3     4     6
 -0.0010532168     1     3     4     7
 0.0040062591     1     3     4     8
 0.0000000030     1     3     4     9
 0.0000000003     1     3     4    10
 0.0013332925     1     3     4    12
 0.0000000003     1     3     4    13
 0.0000000015     1     3     5     5
 -0.0000000012     1     3     5    11
 0.0032864945     1     3     5    14
 0.0000000162     1     3     6     1
 -0.0000000006     1     3     6     2
 -0.0000000004     1     3     6     4
 -0.0000000002     1     3     6     6
 -0.0018941675     1     3     6     7
 -0.0003156027     1     3     6     8
 -0.0000000006     1     3     6     9
 0.0017909126     1     3     6    12
 0.0000000002     1     3     6    13
 0.1511170196     1     3     7     1
 -0.0082162290     1     3     7     2
 -0.0026966710     1     3     7     4
 -0.0037111186     1     3     7     6
 0.0000000004     1     3     7     7
 0.0000000017     1     3     7     8
 -0.0018407817     1     3     7     9
 -0.0011551527     1     3     7    10
 -0.0000000002     1     3     7    12
 -0.0014628723     1     3     7    13
 -0.0851324859     1     3     8     1
 0.0061592638     1     3     8     2
 0.0018914312     1     3     8     4
 0.0019238721     1     3     8     6
 0.0000000012     1     3     8     7
 -0.0000000031     1     3     8     8
 0.0007743859     1     3     8     9
 0.0040293293     1     3     8    10
 -0.0000000039     1     3     8    12
 0.0030367366     1     3     8    13
 -0.0000000474     1     3     9     1
 0.0000000038     1     3     9     2
 0.0000000013     1     3     9     4
 0.0000000010     1     3     9     6
 -0.0014598185     1     3     9     7
 0.0008761257     1     3     9     8
 0.0000000007     1     3     9     9
 0.0000000032     1     3     9    10
 0.0040618860     1     3     9    12
 0.0000000030     1     3     9    13
 -0.0000000258     1     3    10     1
 0.0000000020     1     3    10     2
 0.0000000001     1     3    10     4
 0.0000000007     1     3    10     6
 -0.0009236316     1     3    10     7
 0.0017594492     1     3    10     8
 0.0000000015     1     3    10     9
 0.0000000021     1     3    10    10
 0.0017735542     1     3    10    12
 0.0000000015     1     3    10    13
 -0.0000000005     1     3    11     5
 0.0009437710     1     3    11    14
 -0.2331767770     1     3    12     1
 0.0142949479     1     3    12     2
 0.0046226915     1     3    12     4
 0.0052826019     1     3    12     6
 -0.0000000007     1     3    12     7
 -0.0000000044     1     3    12     8
 0.0048472743     1     3    12     9
 0.0021846853     1     3    12    10
 0.0000000006     1     3    12    12
 0.0035593293     1     3    12    13
 -0.0000000492     1     3    13     1
 0.0000000032     1     3    13     2
 0.0000000009     1     3    13     4
 0.0000000012     1     3    13     6
 0.0004818857     1     3    13     7
 0.0008043983     1     3    13     8
 0.0000000017     1     3    13     9
 0.0000000011     1     3    13    10
 -0.0001623661     1     3    13    12
 0.0000000009     1     3    13    13
 -0.0003239290     1     3    14     5
 0.0032844273     1     3    14    11
 0.0000000003     1     3    14    14
 -0.0665027007     1     4     2     1
 -0.0062421780     1     4     2     2
 -0.0000000002     1     4     2     3
 -0.0002199857     1     4     2     6
 0.0000000002     1     4     2     7
 0.0000000003     1     4     2     8
 -0.0014811215     1     4     2     9
 0.0025696979     1     4     2    10
 -0.0000000005     1     4     2    12
 0.0010521273     1     4     2    13
 0.0000000131     1     4     3     1
 -0.0000000009     1     4     3     2
 -0.0094997869     1     4     3     3
 -0.0000000001     1     4     3     6
 0.0018055044     1     4     3     7
 0.0020737338     1     4     3     8
 0.0000000018     1     4     3     9
 0.0000000002     1     4     3    10
 -0.0036229353     1     4     3    12
 -0.0000000006     1     4     3    13
 -0.9495767653     1     4     4     1
 0.0362394145     1     4     4     2
 -0.0000000010     1     4     4     3
 0.0084817690     1     4     4     6
 -0.0000000003     1     4     4     7
 -0.0000000065     1     4     4     8
 0.0049226520     1     4     4     9
 0.0088323951     1     4     4    10
 -0.0000000001     1     4     4    12
 0.0029505779     1     4     4    13
 -0.0127033528     1     4     5     5
 0.0072363305     1     4     5    11
 0.0000000011     1     4     5    14
 0.0720499963     1     4     6     1
 -0.0062625504     1     4     6     2
 0.0000000004     1     4     6     3
 -0.0032727987     1     4     6     6
 -0.0000000002     1     4     6     7
 0.0000000014     1     4     6     8
 -0.0002083895     1     4     6     9
 -0.0037785166     1     4     6    10
 0.0000000005     1     4     6    12
 -0.0015985755     1     4     6    13
 0.0000000090     1     4     7     1
 -0.0000000003     1     4     7     2
 0.0026966710     1     4     7     3
 -0.0000000003     1     4     7     6
 -0.0020130192     1     4     7     7
 0.0009693331     1     4     7     8
 0.0000000005     1     4     7     9
 0.0000000002     1     4     7    10
 0.0022950824     1     4     7    12
 0.0000000005     1     4     7    13
 -0.0000000058     1     4     8     1
 0.0000000025     1     4     8     2
 -0.0018914312     1     4     8     3
 0.0000000009     1     4     8     6
 0.0021829281     1     4     8     7
 -0.0013322476     1     4     8     8
 0.0000000012     1     4     8     9
 0.0000000022     1     4     8    10
 -0.0051634719     1     4     8    12
 -0.0000000008     1     4     8    13
 -0.0847669674     1     4     9     1
 0.0029916426     1     4     9     2
 -0.0000000013     1     4     9     3
 0.0018184222     1     4     9     6
 0.0000000014     1     4     9     7
 -0.0000000002     1     4     9     8
 -0.0005836941     1     4     9     9
 -0.0008016680     1     4     9    10
 -0.0000000042     1     4     9    12
 0.0017315411     1     4     9    13
 0.2216417404     1     4    10     1
 -0.0148993440     1     4    10     2
 -0.0000000001     1     4    10     3
 -0.0065888700     1     4    10     6
 0.0000000008     1     4    10     7
 0.0000000050     1     4    10     8
 -0.0045758014     1     4    10     9
 -0.0049078625     1     4    10    10
 -0.0000000009     1     4    10    12
 -0.0046430474     1     4    10    13
 0.0059196981     1     4    11     5
 -0.0043601757     1     4    11    11
 -0.0000000002     1     4    11    14
 -0.0000000204     1     4    12     1
 0.0000000013     1     4    12     2
 -0.0046226915     1     4    12     3
 0.0000000009     1     4    12     6
 0.0020478058     1     4    12     7
 -0.0026618748     1     4    12     8
 -0.0000000019     1     4    12     9
 0.0000000002     1     4    12    10
 -0.0037154541     1     4    12    12
 -0.0000000001     1     4    12    13
 0.0497522345     1     4    13     1
 -0.0049572358     1     4    13     2
 -0.0000000009     1     4    13     3
 -0.0026254773     1     4    13     6
 0.0000000006     1     4    13     7
 0.0000000006     1     4    13     8
 0.0004964034     1     4    13     9
 -0.0048025717     1     4    13    10
 -0.0000000005     1     4    13    12
 -0.0030989194     1     4    13    13
 0.0000000006     1     4    14     5
 0.0000000001     1     4    14    11
 -0.0022846802     1     4    14    14
 0.0049162060     1     5     2    11
 0.0000000007     1     5     2    14
 -0.0000000006     1     5     3    11
 0.0036914297     1     5     3    14
 0.0009087447     1     5     4    11
 0.0000000004     1     5     4    14
 -0.9982758916     1     5     5     1
 0.0411376597     1     5     5     2
 -0.0000000015     1     5     5     3
 0.0127033528     1     5     5     4
 0.0081620072     1     5     5     6
 -0.0000000003     1     5     5     7
 -0.0000000093     1     5     5     8
 0.0097976151     1     5     5     9
 0.0039854413     1     5     5    10
 -0.0000000007     1     5     5    12
 0.0072237963     1     5     5    13
 -0.0021092979     1     5     6    11
 -0.0000000003     1     5     6    14
 0.0000000001     1     5     7    11
 0.0003971868     1     5     7    14
 -0.0000000017     1     5     8    11
 0.0004338702     1     5     8    14
 0.0018202853     1     5     9    11
 0.0000000006     1     5     9    14
 0.0004186965     1     5    10    11
 0.0000000001     1     5    10    14
 0.2975606040     1     5    11     1
 -0.0180950948     1     5    11     2
 0.0000000005     1     5    11     3
 -0.0059196981     1     5    11     4
 -0.0071938514     1     5    11     6
 0.0000000002     1     5    11     7
 0.0000000041     1     5    11     8
 -0.0041469864     1     5    11     9
 -0.0023370473     1     5    11    10
 0.0000000007     1     5    11    12
 -0.0040943441     1     5    11    13
 0.0000085037     1     5    12    14
 0.0004264863     1     5    13    11
 0.0000000001     1     5    13    14
 0.0000000334     1     5    14     1
 -0.0000000020     1     5    14     2
 0.0003239290     1     5    14     3
 -0.0000000006     1     5    14     4
 -0.0000000007     1     5    14     6
 0.0016347375     1     5    14     7
 -0.0005148024     1     5    14     8
 -0.0000000007     1     5    14     9
 -0.0000000003     1     5    14    10
 -0.0023387062     1     5    14    12
 -0.0000000009     1     5    14    13
 -0.1313504991     1     6     2     1
 0.0012262815     1     6     2     2
 -0.0000000003     1     6     2     3
 0.0002199857     1     6     2     4
 0.0000000001     1     6     2     7
 -0.0000000001     1     6     2     8
 0.0003875029     1     6     2     9
 -0.0008100094     1     6     2    10
 0.0000000001     1     6     2    12
 -0.0003458623     1     6     2    13
 0.0000000162     1     6     3     1
 -0.0000000010     1     6     3     2
 -0.0041241993     1     6     3     3
 0.0000000001     1     6     3     4
 0.0018191651     1     6     3     7
 -0.0022694096     1     6     3     8
 -0.0000000015     1     6     3     9
 -0.0000000007     1     6     3    10
 -0.0035425938     1     6     3    12
 -0.0000000010     1     6     3    13
 0.0720499963     1     6     4     1
 -0.0065837869     1     6     4     2
 0.0000000006     1     6     4     3
 -0.0084817690     1     6     4     4
 0.0000000001     1     6     4     7
 0.0000000005     1     6     4     8
 -0.0020482906     1     6     4     9
 0.0028888088     1     6     4    10
 -0.0000000004     1     6     4    12
 0.0010430647     1     6     4    13
 -0.0081620072     1     6     5     5
 0.0050707106     1     6     5    11
 0.0000000004     1     6     5    14
 -0.3191100850     1     6     6     1
 0.0014613822     1     6     6     2
 0.0000000002     1     6     6     3
 0.0032727987     1     6     6     4
 -0.0000000001     1     6     6     7
 0.0000000001     1     6     6     8
 0.0004646133     1     6     6     9
 -0.0010799601     1     6     6    10
 0.0000000004     1     6     6    12
 -0.0002904700     1     6     6    13
 -0.0000000037     1     6     7     1
 0.0000000006     1     6     7     2
 0.0037111186     1     6     7     3
 0.0000000003     1     6     7     4
 -0.0012426695     1     6     7     7
 0.0011008393     1     6     7     8
 0.0000000009     1     6     7     9
 0.0000000002     1     6     7    10
 0.0026902598     1     6     7    12
 0.0000000006     1     6     7    13
 0.0000000766     1     6     8     1
 -0.0000000011     1     6     8     2
 -0.0019238721     1     6     8     3
 -0.0000000009     1     6     8     4
 0.0004582644     1     6     8     7
 -0.0004427134     1     6     8     8
 -0.0000000009     1     6     8     9
 -0.0000000004     1     6     8    10
 -0.0006494571     1     6     8    12
 -0.0000000002     1     6     8    13
 -0.0411790885     1     6     9     1
 -0.0003264817     1     6     9     2
 -0.0000000010     1     6     9     3
 -0.0018184222     1     6     9     4
 0.0000000002     1     6     9     7
 -0.0000000006     1     6     9     8
 -0.0001152385     1     6     9     9
 0.0012668716     1     6     9    10
 -0.0000000003     1     6     9    12
 -0.0000368066     1     6     9    13
 -0.1075329423     1     6    10     1
 0.0031733276     1     6    10     2
 -0.0000000007     1     6    10     3
 0.0065888700     1     6    10     4
 -0.0000000008     1     6    10     8
 0.0018951158     1     6    10     9
 -0.0028486063     1     6    10    10
 0.0000000001     1     6    10    12
 -0.0002753450     1     6    10    13
 0.0071938514     1     6    11     5
 -0.0047162309     1     6    11    11
 -0.0000000006     1     6    11    14
 0.0000000224     1     6    12     1
 -0.0000000011     1     6    12     2
 -0.0052826019     1     6    12     3
 -0.0000000009     1     6    12     4
 0.0020556957     1     6    12     7
 -0.0013851081     1     6    12     8
 -0.0000000011     1     6    12     9
 -0.0000000002     1     6    12    10
 -0.0039503169     1     6    12    12
 -0.0000000010     1     6    12    13
 -0.0691996835     1     6    13     1
 0.0011281656     1     6    13     2
 -0.0000000012     1     6    13     3
 0.0026254773     1     6    13     4
 0.0000000003     1     6    13     7
 -0.0000000004     1     6    13     8
 0.0002276456     1     6    13     9
 -0.0004867400     1     6    13    10
 -0.0000000008     1     6    13    12
 0.0001733988     1     6    13    13
 0.0000000007     1     6    14     5
 -0.0000000007     1     6    14    11
 0.0005106439     1     6    14    14
 0.0000000093     1     7     2     1
 -0.0000000004     1     7     2     2
 -0.0021076204     1     7     2     3
 -0.0000000002     1     7     2     4
 -0.0000000001     1     7     2     6
 0.0003189297     1     7     2     8
 0.0000000003     1     7     2     9
 0.0000000001     1     7     2    10
 0.0005869937     1     7     2    12
 0.0000000001     1     7     2    13
 0.1511170196     1     7     3     1
 -0.0110555982     1     7     3     2
 0.0000000006     1     7     3     3
 -0.0018055044     1     7     3     4
 -0.0018191651     1     7     3     6
 0.0000000005     1     7     3     8
 -0.0003815536     1     7     3     9
 -0.0001814421     1     7     3    10
 0.0000000005     1     7     3    12
 -0.0019452790     1     7     3    13
 0.0000000090     1     7     4     1
 -0.0000000005     1     7     4     2
 0.0010532168     1     7     4     3
 0.0000000003     1     7     4     4
 -0.0000000001     1     7     4     6
 -0.0012323574     1     7     4     8
 -0.0000000010     1     7     4     9
 -0.0000000005     1     7     4    10
 0.0002348513     1     7     4    12
 -0.0000000001     1     7     4    13
 0.0000000003     1     7     5     5
 -0.0000000001     1     7     5    11
 -0.0012586431     1     7     5    14
 -0.0000000037     1     7     6     1
 0.0000000005     1     7     6     2
 0.0018941675     1     7     6     3
 0.0000000002     1     7     6     4
 0.0000000001     1     7     6     6
 0.0006413325     1     7     6     8
 0.0000000006     1     7     6     9
 0.0000000002     1     7     6    10
 0.0006308541     1     7     6    12
 0.0000000003     1     7     6    13
 -0.2855805382     1     7     7     1
 0.0035765793     1     7     7     2
 -0.0000000004     1     7     7     3
 0.0020130192     1     7     7     4
 0.0012426695     1     7     7     6
 -0.0000000008     1     7     7     8
 0.0008425458     1     7     7     9
 -0.0000170578     1     7     7    10
 -0.0000000002     1     7     7    12
 0.0004308493     1     7     7    13
 0.0695062585     1     7     8     1
 -0.0025991168     1     7     8     2
 -0.0000000012     1     7     8     3
 -0.0021829281     1     7     8     4
 -0.0004582644     1     7     8     6
 0.0000000007     1     7     8     8
 -0.0004919652     1     7     8     9
 -0.0007139474     1     7     8    10
 0.0000000006     1     7     8    12
 -0.0008919369     1     7     8    13
 0.0000000475     1     7     9     1
 -0.0000000016     1     7     9     2
 0.0014598185     1     7     9     3
 -0.0000000014     1     7     9     4
 -0.0000000002     1     7     9     6
 0.0000930008     1     7     9     8
 -0.0000000001     1     7     9     9
 -0.0000000006     1     7     9    10
 -0.0004748014     1     7     9    12
 -0.0000000007     1     7     9    13
 0.0000000160     1     7    10     1
 -0.0000000004     1     7    10     2
 0.0009236316     1     7    10     3
 -0.0000000008     1     7    10     4
 -0.0003871031     1     7    10     8
 -0.0000000004     1     7    10     9
 -0.0000000002     1     7    10    10
 -0.0000132220     1     7    10    12
 -0.0000000002     1     7    10    13
 -0.0000000002     1     7    11     5
 0.0000000003     1     7    11    11
 -0.0003443265     1     7    11    14
 0.1487636222     1     7    12     1
 -0.0064174647     1     7    12     2
 0.0000000007     1     7    12     3
 -0.0020478058     1     7    12     4
 -0.0020556957     1     7    12     6
 0.0000000020     1     7    12     8
 -0.0018921574     1     7    12     9
 -0.0008223908     1     7    12    10
 0.0000000003     1     7    12    12
 -0.0013881376     1     7    12    13
 0.0000000343     1     7    13     1
 -0.0000000013     1     7    13     2
 -0.0004818857     1     7    13     3
 -0.0000000006     1     7    13     4
 -0.0000000003     1     7    13     6
 -0.0004291738     1     7    13     8
 -0.0000000007     1     7    13     9
 -0.0000000003     1     7    13    10
 -0.0002676884     1     7    13    12
 -0.0000000003     1     7    13    13
 -0.0016347375     1     7    14     5
 -0.0001105470     1     7    14    11
 0.0000000849     1     8     2     1
 -0.0000000001     1     8     2     2
 0.0024692395     1     8     2     3
 -0.0000000003     1     8     2     4
 0.0000000001     1     8     2     6
 -0.0003189297     1     8     2     7
 -0.0000000002     1     8     2     9
 0.0000000005     1     8     2    10
 0.0001415198     1     8     2    12
 0.0000000003     1     8     2    13
 -0.0851324859     1     8     3     1
 0.0091617422     1     8     3     2
 0.0000000011     1     8     3     3
 -0.0020737338     1     8     3     4
 0.0022694096     1     8     3     6
 -0.0000000005     1     8     3     7
 -0.0000755455     1     8     3     9
 0.0022723686     1     8     3    10
 0.0000000006     1     8     3    12
 0.0022518368     1     8     3    13
 -0.0000000058     1     8     4     1
 0.0000000024     1     8     4     2
 -0.0040062591     1     8     4     3
 0.0000000065     1     8     4     4
 -0.0000000005     1     8     4     6
 0.0012323574     1     8     4     7
 0.0000000014     1     8     4     9
 -0.0000000029     1     8     4    10
 -0.0025151725     1     8     4    12
 -0.0000000015     1     8     4    13
 0.0000000093     1     8     5     5
 -0.0000000058     1     8     5    11
 0.0009328011     1     8     5    14
 0.0000000766     1     8     6     1
 -0.0000000010     1     8     6     2
 0.0003156027     1     8     6     3
 -0.0000000014     1     8     6     4
 -0.0000000001     1     8     6     6
 -0.0006413325     1     8     6     7
 -0.0000000003     1     8     6     9
 0.0000000004     1     8     6    10
 0.0007375355     1     8     6    12
 0.0000000002     1     8     6    13
 0.0695062585     1     8     7     1
 -0.0029191784     1     8     7     2
 -0.0000000017     1     8     7     3
 -0.0009693331     1     8     7     4
 -0.0011008393     1     8     7     6
 0.0000000008     1     8     7     7
 -0.0005847296     1     8     7     9
 -0.0003295794     1     8     7    10
 -0.0000000014     1     8     7    12
 -0.0004653600     1     8     7    13
 -0.3912134937     1     8     8     1
 0.0022802736     1     8     8     2
 0.0000000031     1     8     8     3
 0.0013322476     1     8     8     4
 0.0004427134     1     8     8     6
 -0.0000000007     1     8     8     7
 0.0003418415     1     8     8     9
 0.0007910869     1     8     8    10
 0.0000000008     1     8     8    12
 0.0007546699     1     8     8    13
 -0.0000000108     1     8     9     1
 0.0000000016     1     8     9     2
 -0.0008761257     1     8     9     3
 0.0000000002     1     8     9     4
 0.0000000006     1     8     9     6
 -0.0000930008     1     8     9     7
 0.0000000008     1     8     9    10
 0.0005379470     1     8     9    12
 0.0000000010     1     8     9    13
 0.0000000288     1     8    10     1
 -0.0000000005     1     8    10     2
 -0.0017594492     1     8    10     3
 -0.0000000050     1     8    10     4