&FCI NORB= 11,NELEC= 10,MS2=0,
 ORBSYM=1,1,1,1,1,1,1,1,1,1,1
 ISYM=1,
&END
 0.9821133927     1     1     2     2
 0.0724844494     1     1     2     4
 -0.1739579860     1     1     2     6
 0.1412413323     1     1     2     9
 -0.0167847742     1     1     2    10
 0.8587128289     1     1     3     3
 -0.2198735226     1     1     3     7
 0.1479029941     1     1     3     8
 0.0724844494     1     1     4     2
 0.9522747218     1     1     4     4
 0.0996552572     1     1     4     6
 -0.1501133778     1     1     4     9
 -0.3489571567     1     1     4    10
 1.0065008570     1     1     5     5
 0.4407019998     1     1     5    11
 -0.1739579860     1     1     6     2
 0.0996552572     1     1     6     4
 0.3993595333     1     1     6     6
 -0.1606647308     1     1     6     9
 -0.0847363164     1     1     6    10
 -0.2198735226     1     1     7     3
 0.3926994341     1     1     7     7
 -0.1545150640     1     1     7     8
 0.1479029941     1     1     8     3
 -0.1545150640     1     1     8     7
 0.5543842602     1     1     8     8
 0.1412413323     1     1     9     2
 -0.1501133778     1     1     9     4
 -0.1606647308     1     1     9     6
 0.5748623622     1     1     9     9
 0.1221166873     1     1     9    10
 -0.0167847742     1     1    10     2
 -0.3489571567     1     1    10     4
 -0.0847363164     1     1    10     6
 0.1221166873     1     1    10     9
 0.7949882969     1     1    10    10
 0.4407019998     1     1    11     5
 0.9487867212     1     1    11    11
 -0.9821133927     1     2     2     1
 -0.0068309145     1     2     2     4
 -0.0023695429     1     2     2     6
 0.0042805038     1     2     2     9
 0.0089363576     1     2     2    10
 0.0299752274     1     2     3     3
 -0.0163664685     1     2     3     7
 0.0164270491     1     2     3     8
 -0.0724844494     1     2     4     1
 0.0353436305     1     2     4     4
 0.0094036387     1     2     4     6
 -0.0166151555     1     2     4     9
 -0.0353900810     1     2     4    10
 0.0409290309     1     2     5     5
 0.0471931902     1     2     5    11
 0.1739579860     1     2     6     1
 0.0091694268     1     2     6     4
 0.0026344250     1     2     6     6
 -0.0049115131     1     2     6     9
 -0.0100778456     1     2     6    10
 -0.0127621098     1     2     7     3
 0.0073017478     1     2     7     7
 -0.0073765368     1     2     7     8
 0.0114156811     1     2     8     3
 -0.0064343669     1     2     8     7
 0.0061580252     1     2     8     8
 -0.1412413323     1     2     9     1
 -0.0137197114     1     2     9     4
 -0.0039896471     1     2     9     6
 0.0067876613     1     2     9     9
 0.0156733718     1     2     9    10
 0.0167847742     1     2    10     1
 -0.0232334664     1     2    10     4
 -0.0061280607     1     2    10     6
 0.0119054313     1     2    10     9
 0.0265641481     1     2    10    10
 0.0307345918     1     2    11     5
 0.0403387469     1     2    11    11
 -0.0032018125     1     3     2     7
 0.0046857580     1     3     2     8
 -0.8587128289     1     3     3     1
 -0.0299752274     1     3     3     2
 -0.0104022473     1     3     3     4
 0.0049090283     1     3     3     6
 0.0006251344     1     3     3     9
 0.0052266181     1     3     3    10
 0.0017930228     1     3     4     7
 -0.0059987904     1     3     4     8
 -0.0025318823     1     3     6     7
 -0.0003536390     1     3     6     8
 0.2198735226     1     3     7     1
 0.0127621098     1     3     7     2
 0.0044059834     1     3     7     4
 -0.0061112640     1     3     7     6
 0.0033598454     1     3     7     9
 -0.0009649644     1     3     7    10
 -0.1479029941     1     3     8     1
 -0.0114156811     1     3     8     2
 -0.0035457201     1     3     8     4
 0.0047870014     1     3     8     6
 -0.0088163263     1     3     8     9
 -0.0032518879     1     3     8    10
 0.0022081977     1     3     9     7
 -0.0048309694     1     3     9     8
 -0.0011420364     1     3    10     7
 0.0021953480     1     3    10     8
 -0.0724844494     1     4     2     1
 0.0068309145     1     4     2     2
 -0.0000176696     1     4     2     6
 -0.0025607719     1     4     2     9
 -0.0114224640     1     4     2    10
 0.0104022473     1     4     3     3
 -0.0026610092     1     4     3     7
 -0.0023576988     1     4     3     8
 -0.9522747218     1     4     4     1
 -0.0353436305     1     4     4     2
 0.0108169705     1     4     4     6
 -0.0127726100     1     4     4     9
 -0.0059628370     1     4     4    10
 0.0138283240     1     4     5     5
 0.0149704183     1     4     5    11
 -0.0996552572     1     4     6     1
 -0.0091694268     1     4     6     2
 0.0055934433     1     4     6     6
 -0.0051913443     1     4     6     9
 -0.0023543617     1     4     6    10
 -0.0044059834     1     4     7     3
 0.0038571986     1     4     7     7
 -0.0016786008     1     4     7     8
 0.0035457201     1     4     8     3
 -0.0040252478     1     4     8     7
 0.0061451114     1     4     8     8
 0.1501133778     1     4     9     1
 0.0137197114     1     4     9     2
 -0.0069778337     1     4     9     6
 0.0110734624     1     4     9     9
 -0.0001552807     1     4     9    10
 0.3489571567     1     4    10     1
 0.0232334664     1     4    10     2
 -0.0121203642     1     4    10     6
 0.0103555903     1     4    10     9
 0.0046819084     1     4    10    10
 0.0105290363     1     4    11     5
 0.0135514233     1     4    11    11
 0.0155882725     1     5     2    11
 0.0042604451     1     5     4    11
 -1.0065008570     1     5     5     1
 -0.0409290309     1     5     5     2
 -0.0138283240     1     5     5     4
 0.0101572999     1     5     5     6
 -0.0123099330     1     5     5     9
 0.0091994472     1     5     5    10
 0.0002984125     1     5     6    11
 0.0046833867     1     5     9    11
 -0.0024684641     1     5    10    11
 -0.4407019998     1     5    11     1
 -0.0307345918     1     5    11     2
 -0.0105290363     1     5    11     4
 0.0129895753     1     5    11     6
 -0.0107738015     1     5    11     9
 0.0076659582     1     5    11    10
 0.1739579860     1     6     2     1
 0.0023695429     1     6     2     2
 0.0000176696     1     6     2     4
 -0.0009276972     1     6     2     9
 -0.0037233538     1     6     2    10
 -0.0049090283     1     6     3     3
 0.0036742002     1     6     3     7
 -0.0051981993     1     6     3     8
 -0.0996552572     1     6     4     1
 -0.0094036387     1     6     4     2
 -0.0108169705     1     6     4     4
 0.0018396772     1     6     4     9
 0.0097313800     1     6     4    10
 -0.0101572999     1     6     5     5
 -0.0124345020     1     6     5    11
 -0.3993595333     1     6     6     1
 -0.0026344250     1     6     6     2
 -0.0055934433     1     6     6     4
 0.0013410257     1     6     6     9
 0.0051189749     1     6     6    10
 0.0061112640     1     6     7     3
 -0.0029089142     1     6     7     7
 0.0034256375     1     6     7     8
 -0.0047870014     1     6     8     3
 0.0020114410     1     6     8     7
 -0.0012077191     1     6     8     8
 0.1606647308     1     6     9     1
 0.0039896471     1     6     9     2
 0.0069778337     1     6     9     4
 -0.0002466970     1     6     9     9
 -0.0075382047     1     6     9    10
 0.0847363164     1     6    10     1
 0.0061280607     1     6    10     2
 0.0121203642     1     6    10     4
 -0.0032834649     1     6    10     9
 -0.0116429238     1     6    10    10
 -0.0129895753     1     6    11     5
 -0.0158208623     1     6    11    11
 0.0032018125     1     7     2     3
 -0.0009065268     1     7     2     8
 0.2198735226     1     7     3     1
 0.0163664685     1     7     3     2
 0.0026610092     1     7     3     4
 -0.0036742002     1     7     3     6
 0.0011786580     1     7     3     9
 0.0000899511     1     7     3    10
 -0.0017930228     1     7     4     3
 0.0023831579     1     7     4     8
 0.0025318823     1     7     6     3
 0.0014194817     1     7     6     8
 -0.3926994341     1     7     7     1
 -0.0073017478     1     7     7     2
 -0.0038571986     1     7     7     4
 0.0029089142     1     7     7     6
 -0.0012222190     1     7     7     9
 0.0018519386     1     7     7    10
 0.1545150640     1     7     8     1
 0.0064343669     1     7     8     2
 0.0040252478     1     7     8     4
 -0.0020114410     1     7     8     6
 0.0036881647     1     7     8     9
 -0.0002771450     1     7     8    10
 -0.0022081977     1     7     9     3
 0.0014448831     1     7     9     8
 0.0011420364     1     7    10     3
 -0.0005914068     1     7    10     8
 -0.0046857580     1     8     2     3
 0.0009065268     1     8     2     7
 -0.1479029941     1     8     3     1
 -0.0164270491     1     8     3     2
 0.0023576988     1     8     3     4
 0.0051981993     1     8     3     6
 -0.0039547632     1     8     3     9
 -0.0050633356     1     8     3    10
 0.0059987904     1     8     4     3
 -0.0023831579     1     8     4     7
 0.0003536390     1     8     6     3
 -0.0014194817     1     8     6     7
 0.1545150640     1     8     7     1
 0.0073765368     1     8     7     2
 0.0016786008     1     8     7     4
 -0.0034256375     1     8     7     6
 0.0022385812     1     8     7     9
 0.0003236196     1     8     7    10
 -0.5543842602     1     8     8     1
 -0.0061580252     1     8     8     2
 -0.0061451114     1     8     8     4
 0.0012077191     1     8     8     6
 -0.0023744380     1     8     8     9
 0.0023971634     1     8     8    10
 0.0048309694     1     8     9     3
 -0.0014448831     1     8     9     7
 -0.0021953480     1     8    10     3
 0.0005914068     1     8    10     7
 -0.1412413323     1     9     2     1
 -0.0042805038     1     9     2     2
 0.0025607719     1     9     2     4
 0.0009276972     1     9     2     6
 0.0036231397     1     9     2    10
 -0.0006251344     1     9     3     3
 -0.0011786580     1     9     3     7
 0.0039547632     1     9     3     8
 0.1501133778     1     9     4     1
 0.0166151555     1     9     4     2
 0.0127726100     1     9     4     4
 -0.0018396772     1     9     4     6
 -0.0104179791     1     9     4    10
 0.0123099330     1     9     5     5
 0.0149998121     1     9     5    11
 0.1606647308     1     9     6     1
 0.0049115131     1     9     6     2
 0.0051913443     1     9     6     4
 -0.0013410257     1     9     6     6
 -0.0042547251     1     9     6    10
 -0.0033598454     1     9     7     3
 0.0012222190     1     9     7     7
 -0.0022385812     1     9     7     8
 0.0088163263     1     9     8     3
 -0.0036881647     1     9     8     7
 0.0023744380     1     9     8     8
 -0.5748623622     1     9     9     1
 -0.0067876613     1     9     9     2
 -0.0110734624     1     9     9     4
 0.0002466970     1     9     9     6
 0.0116045965     1     9     9    10
 -0.1221166873     1     9    10     1
 -0.0119054313     1     9    10     2
 -0.0103555903     1     9    10     4
 0.0032834649     1     9    10     6
 0.0090689046     1     9    10    10
 0.0107738015     1     9    11     5
 0.0134100492     1     9    11    11
 0.0167847742     1    10     2     1
 -0.0089363576     1    10     2     2
 0.0114224640     1    10     2     4
 0.0037233538     1    10     2     6
 -0.0036231397     1    10     2     9
 -0.0052266181     1    10     3     3
 -0.0000899511     1    10     3     7
 0.0050633356     1    10     3     8
 0.3489571567     1    10     4     1
 0.0353900810     1    10     4     2
 0.0059628370     1    10     4     4
 -0.0097313800     1    10     4     6
 0.0104179791     1    10     4     9
 -0.0091994472     1    10     5     5
 -0.0096506093     1    10     5    11
 0.0847363164     1    10     6     1
 0.0100778456     1    10     6     2
 0.0023543617     1    10     6     4
 -0.0051189749     1    10     6     6
 0.0042547251     1    10     6     9
 0.0009649644     1    10     7     3
 -0.0018519386     1    10     7     7
 -0.0003236196     1    10     7     8
 0.0032518879     1    10     8     3
 0.0002771450     1    10     8     7
 -0.0023971634     1    10     8     8
 -0.1221166873     1    10     9     1
 -0.0156733718     1    10     9     2
 0.0001552807     1    10     9     4
 0.0075382047     1    10     9     6
 -0.0116045965     1    10     9     9
 -0.7949882969     1    10    10     1
 -0.0265641481     1    10    10     2
 -0.0046819084     1    10    10     4
 0.0116429238     1    10    10     6
 -0.0090689046     1    10    10     9
 -0.0076659582     1    10    11     5
 -0.0093848329     1    10    11    11
 -0.0155882725     1    11     2     5
 -0.0042604451     1    11     4     5
 -0.4407019998     1    11     5     1
 -0.0471931902     1    11     5     2
 -0.0149704183     1    11     5     4
 0.0124345020     1    11     5     6
 -0.0149998121     1    11     5     9
 0.0096506093     1    11     5    10
 -0.0002984125     1    11     6     5
 -0.0046833867     1    11     9     5
 0.0024684641     1    11    10     5
 -0.9487867212     1    11    11     1
 -0.0403387469     1    11    11     2
 -0.0135514233     1    11    11     4
 0.0158208623     1    11    11     6
 -0.0134100492     1    11    11     9
 0.0093848329     1    11    11    10
 -0.9821133927     2     1     1     2
 -0.0724844494     2     1     1     4
 0.1739579860     2     1     1     6
 -0.1412413323     2     1     1     9
 0.0167847742     2     1     1    10
 0.0299752274     2     1     3     3
 -0.0127621098     2     1     3     7
 0.0114156811     2     1     3     8
 -0.0068309145     2     1     4     2
 0.0353436305     2     1     4     4
 0.0091694268     2     1     4     6
 -0.0137197114     2     1     4     9
 -0.0232334664     2     1     4    10
 0.0409290309     2     1     5     5
 0.0307345918     2     1     5    11
 -0.0023695429     2     1     6     2
 0.0094036387     2     1     6     4
 0.0026344250     2     1     6     6
 -0.0039896471     2     1     6     9
 -0.0061280607     2     1     6    10
 -0.0163664685     2     1     7     3
 0.0073017478     2     1     7     7
 -0.0064343669     2     1     7     8
 0.0164270491     2     1     8     3
 -0.0073765368     2     1     8     7
 0.0061580252     2     1     8     8
 0.0042805038     2     1     9     2
 -0.0166151555     2     1     9     4
 -0.0049115131     2     1     9     6
 0.0067876613     2     1     9     9
 0.0119054313     2     1     9    10
 0.0089363576     2     1    10     2
 -0.0353900810     2     1    10     4
 -0.0100778456     2     1    10     6
 0.0156733718     2     1    10     9
 0.0265641481     2     1    10    10
 0.0471931902     2     1    11     5
 0.0403387469     2     1    11    11
 0.9821133927     2     2     1     1
 0.0068309145     2     2     1     4
 0.0023695429     2     2     1     6
 -0.0042805038     2     2     1     9
 -0.0089363576     2     2     1    10
 0.5252816368     2     2     3     3
 -0.0839828810     2     2     3     7
 0.0310518290     2     2     3     8
 0.0068309145     2     2     4     1
 0.5529311104     2     2     4     4
 0.0419710376     2     2     4     6
 -0.0493030845     2     2     4     9
 -0.1123871781     2     2     4    10
 0.5842684575     2     2     5     5
 0.1422837846     2     2     5    11
 0.0023695429     2     2     6     1
 0.0419710376     2     2     6     4
 0.3323971330     2     2     6     6
 -0.0795497013     2     2     6     9
 -0.0404413509     2     2     6    10
 -0.0839828810     2     2     7     3
 0.3278889499     2     2     7     7
 -0.0855843139     2     2     7     8
 0.0310518290     2     2     8     3
 -0.0855843139     2     2     8     7
 0.4729294364     2     2     8     8
 -0.0042805038     2     2     9     1
 -0.0493030845     2     2     9     4
 -0.0795497013     2     2     9     6
 0.4710609029     2     2     9     9
 0.0242716283     2     2     9    10
 -0.0089363576     2     2    10     1
 -0.1123871781     2     2    10     4
 -0.0404413509     2     2    10     6
 0.0242716283     2     2    10     9
 0.5367778411     2     2    10    10
 0.1422837846     2     2    11     5
 0.5810669281     2     2    11    11
 0.0032018125     2     3     1     7
 -0.0046857580     2     3     1     8
 -0.0299752274     2     3     3     1
 -0.5252816368     2     3     3     2
 -0.0033488409     2     3     3     4
 0.0763439302     2     3     3     6
 -0.0784755914     2     3     3     9
 0.0199567076     2     3     3    10
 -0.0150729072     2     3     4     7
 0.0391803036     2     3     4     8
 0.0401865469     2     3     6     7
 0.0000372057     2     3     6     8
 0.0163664685     2     3     7     1
 0.0839828810     2     3     7     2
 -0.0002448962     2     3     7     4
 0.0194123815     2     3     7     6
 0.0071703909     2     3     7     9
 -0.0035108858     2     3     7    10
 -0.0164270491     2     3     8     1
 -0.0310518290     2     3     8     2
 0.0051272923     2     3     8     4
 0.0053895114     2     3     8     6
 0.0511398324     2     3     8     9
 0.0065947991     2     3     8    10
 -0.0147436511     2     3     9     7
 0.0536959954     2     3     9     8
 0.0002810101     2     3    10     7
 0.0050962706     2     3    10     8
 0.0724844494     2     4     1     1
 -0.0068309145     2     4     1     2
 0.0000176696     2     4     1     6
 0.0025607719     2     4     1     9
 0.0114224640     2     4     1    10
 0.0033488409     2     4     3     3
 -0.0146710943     2     4     3     7
 0.0344505818     2     4     3     8
 -0.0353436305     2     4     4     1
 -0.5529311104     2     4     4     2
 0.0766545321     2     4     4     6
 -0.0512964844     2     4     4     9
 -0.0154316638     2     4     4    10
 0.0065769722     2     4     5     5
 0.0117649180     2     4     5    11
 -0.0094036387     2     4     6     1
 -0.0419710376     2     4     6     2
 -0.0102715714     2     4     6     6
 -0.0000847119     2     4     6     9
 0.0202857230     2     4     6    10
 0.0002448962     2     4     7     3
 -0.0141107615     2     4     7     7
 -0.0041310444     2     4     7     8
 -0.0051272923     2     4     8     3
 0.0045523514     2     4     8     7
 -0.0188551473     2     4     8     8
 0.0166151555     2     4     9     1
 0.0493030845     2     4     9     2
 -0.0047380659     2     4     9     6
 -0.0273932040     2     4     9     9
 0.0097400876     2     4     9    10
 0.0353900810     2     4    10     1
 0.1123871781     2     4    10     2
 -0.0063512472     2     4    10     6
 0.0337979591     2     4    10     9
 0.0177846732     2     4    10    10
 0.0096787936     2     4    11     5
 0.0243240457     2     4    11    11
 -0.0155882725     2     5     1    11
 0.0024350858     2     5     4    11
 -0.0409290309     2     5     5     1
 -0.5842684575     2     5     5     2
 -0.0065769722     2     5     5     4
 0.0730202339     2     5     5     6
 -0.0328138485     2     5     5     9
 -0.0081093221     2     5     5    10
 -0.0238688943     2     5     6    11
 0.0017256204     2     5     9    11
 -0.0016575817     2     5    10    11
 -0.0471931902     2     5    11     1
 -0.1422837846     2     5    11     2
 -0.0096787936     2     5    11     4
 0.0110985049     2     5    11     6
 -0.0262797390     2     5    11     9
 -0.0018489292     2     5    11    10
 -0.1739579860     2     6     1     1
 -0.0023695429     2     6     1     2
 -0.0000176696     2     6     1     4
 0.0009276972     2     6     1     9
 0.0037233538     2     6     1    10
 -0.0763439302     2     6     3     3
 0.0209600520     2     6     3     7
 -0.0055215320     2     6     3     8
 -0.0091694268     2     6     4     1
 -0.0419710376     2     6     4     2
 -0.0766545321     2     6     4     4
 0.0048543571     2     6     4     9
 0.0267584047     2     6     4    10
 -0.0730202339     2     6     5     5
 -0.0347518303     2     6     5    11
 -0.0026344250     2     6     6     1
 -0.3323971330     2     6     6     2
 0.0102715714     2     6     6     4
 0.0123996708     2     6     6     9
 0.0129254040     2     6     6    10
 -0.0194123815     2     6     7     3
 -0.0147219640     2     6     7     7
 0.0234378669     2     6     7     8
 -0.0053895114     2     6     8     3
 0.0136783518     2     6     8     7
 -0.0393486089     2     6     8     8
 0.0049115131     2     6     9     1
 0.0795497013     2     6     9     2
 0.0047380659     2     6     9     4
 -0.0296326658     2     6     9     9
 -0.0055142319     2     6     9    10
 0.0100778456     2     6    10     1
 0.0404413509     2     6    10     2
 0.0063512472     2     6    10     4
 -0.0012984634     2     6    10     9
 -0.0562536088     2     6    10    10
 -0.0110985049     2     6    11     5
 -0.0678210916     2     6    11    11
 -0.0032018125     2     7     1     3
 0.0009065268     2     7     1     8
 0.0127621098     2     7     3     1
 0.0839828810     2     7     3     2
 0.0146710943     2     7     3     4
 -0.0209600520     2     7     3     6
 0.0215684914     2     7     3     9
 -0.0037417949     2     7     3    10
 0.0150729072     2     7     4     3
 -0.0082653470     2     7     4     8
 -0.0401865469     2     7     6     3
 0.0097885004     2     7     6     8
 -0.0073017478     2     7     7     1
 -0.3278889499     2     7     7     2
 0.0141107615     2     7     7     4
 0.0147219640     2     7     7     6
 0.0005110015     2     7     7     9
 0.0022257304     2     7     7    10
 0.0073765368     2     7     8     1
 0.0855843139     2     7     8     2
 -0.0045523514     2     7     8     4
 -0.0136783518     2     7     8     6
 0.0047015897     2     7     8     9
 -0.0008422672     2     7     8    10
 0.0147436511     2     7     9     3
 -0.0069371963     2     7     9     8
 -0.0002810101     2     7    10     3
 -0.0020923079     2     7    10     8
 0.0046857580     2     8     1     3
 -0.0009065268     2     8     1     7
 -0.0114156811     2     8     3     1
 -0.0310518290     2     8     3     2
 -0.0344505818     2     8     3     4
 0.0055215320     2     8     3     6
 -0.0027210343     2     8     3     9
 0.0010169717     2     8     3    10
 -0.0391803036     2     8     4     3
 0.0082653470     2     8     4     7
 -0.0000372057     2     8     6     3
 -0.0097885004     2     8     6     7
 0.0064343669     2     8     7     1
 0.0855843139     2     8     7     2
 0.0041310444     2     8     7     4
 -0.0234378669     2     8     7     6
 0.0115887183     2     8     7     9
 0.0014391863     2     8     7    10
 -0.0061580252     2     8     8     1
 -0.4729294364     2     8     8     2
 0.0188551473     2     8     8     4
 0.0393486089     2     8     8     6
 -0.0239766707     2     8     8     9
 -0.0017937651     2     8     8    10
 -0.0536959954     2     8     9     3
 0.0069371963     2     8     9     7
 -0.0050962706     2     8    10     3
 0.0020923079     2     8    10     7
 0.1412413323     2     9     1     1
 0.0042805038     2     9     1     2
 -0.0025607719     2     9     1     4
 -0.0009276972     2     9     1     6
 -0.0036231397     2     9     1    10
 0.0784755914     2     9     3     3
 -0.0215684914     2     9     3     7
 0.0027210343     2     9     3     8
 0.0137197114     2     9     4     1
 0.0493030845     2     9     4     2
 0.0512964844     2     9     4     4
 -0.0048543571     2     9     4     6
 -0.0236761007     2     9     4    10
 0.0328138485     2     9     5     5
 0.0276188655     2     9     5    11
 0.0039896471     2     9     6     1
 0.0795497013     2     9     6     2
 0.0000847119     2     9     6     4
 -0.0123996708     2     9     6     6
 -0.0042158263     2     9     6    10
 -0.0071703909     2     9     7     3
 -0.0005110015     2     9     7     7
 -0.0115887183     2     9     7     8
 -0.0511398324     2     9     8     3
 -0.0047015897     2     9     8     7
 0.0239766707     2     9     8     8
 -0.0067876613     2     9     9     1
 -0.4710609029     2     9     9     2
 0.0273932040     2     9     9     4
 0.0296326658     2     9     9     6
 0.0075705719     2     9     9    10
 -0.0156733718     2     9    10     1
 -0.0242716283     2     9    10     2
 -0.0337979591     2     9    10     4
 0.0012984634     2     9    10     6
 0.0323721151     2     9    10    10
 0.0262797390     2     9    11     5
 0.0453760799     2     9    11    11
 -0.0167847742     2    10     1     1
 0.0089363576     2    10     1     2
 -0.0114224640     2    10     1     4
 -0.0037233538     2    10     1     6
 0.0036231397     2    10     1     9
 -0.0199567076     2    10     3     3
 0.0037417949     2    10     3     7
 -0.0010169717     2    10     3     8
 0.0232334664     2    10     4     1
 0.1123871781     2    10     4     2
 0.0154316638     2    10     4     4
 -0.0267584047     2    10     4     6
 0.0236761007     2    10     4     9
 0.0081093221     2    10     5     5
 -0.0003751173     2    10     5    11
 0.0061280607     2    10     6     1
 0.0404413509     2    10     6     2
 -0.0202857230     2    10     6     4
 -0.0129254040     2    10     6     6
 0.0042158263     2    10     6     9
 0.0035108858     2    10     7     3
 -0.0022257304     2    10     7     7
 -0.0014391863     2    10     7     8
 -0.0065947991     2    10     8     3
 0.0008422672     2    10     8     7
 0.0017937651     2    10     8     8
 -0.0119054313     2    10     9     1
 -0.0242716283     2    10     9     2
 -0.0097400876     2    10     9     4
 0.0055142319     2    10     9     6
 -0.0075705719     2    10     9     9
 -0.0265641481     2    10    10     1
 -0.5367778411     2    10    10     2
 -0.0177846732     2    10    10     4
 0.0562536088     2    10    10     6
 -0.0323721151     2    10    10     9
 0.0018489292     2    10    11     5
 -0.0051677623     2    10    11    11
 0.0155882725     2    11     1     5
 -0.0024350858     2    11     4     5
 -0.0307345918     2    11     5     1
 -0.1422837846     2    11     5     2
 -0.0117649180     2    11     5     4
 0.0347518303     2    11     5     6
 -0.0276188655     2    11     5     9
 0.0003751173     2    11     5    10
 0.0238688943     2    11     6     5
 -0.0017256204     2    11     9     5
 0.0016575817     2    11    10     5
 -0.0403387469     2    11    11     1
 -0.5810669281     2    11    11     2
 -0.0243240457     2    11    11     4
 0.0678210916     2    11    11     6
 -0.0453760799     2    11    11     9
 0.0051677623     2    11    11    10
 -0.8587128289     3     1     1     3
 0.2198735226     3     1     1     7
 -0.1479029941     3     1     1     8
 -0.0299752274     3     1     2     3
 0.0127621098     3     1     2     7
 -0.0114156811     3     1     2     8
 -0.0104022473     3     1     4     3
 0.0044059834     3     1     4     7
 -0.0035457201     3     1     4     8
 0.0049090283     3     1     6     3
 -0.0061112640     3     1     6     7
 0.0047870014     3     1     6     8
 -0.0032018125     3     1     7     2
 0.0017930228     3     1     7     4
 -0.0025318823     3     1     7     6
 0.0022081977     3     1     7     9
 -0.0011420364     3     1     7    10
 0.0046857580     3     1     8     2
 -0.0059987904     3     1     8     4
 -0.0003536390     3     1     8     6
 -0.0048309694     3     1     8     9
 0.0021953480     3     1     8    10
 0.0006251344     3     1     9     3
 0.0033598454     3     1     9     7
 -0.0088163263     3     1     9     8
 0.0052266181     3     1    10     3
 -0.0009649644     3     1    10     7
 -0.0032518879     3     1    10     8
 -0.0299752274     3     2     1     3
 0.0163664685     3     2     1     7
 -0.0164270491     3     2     1     8
 -0.5252816368     3     2     2     3
 0.0839828810     3     2     2     7
 -0.0310518290     3     2     2     8
 -0.0033488409     3     2     4     3
 -0.0002448962     3     2     4     7
 0.0051272923     3     2     4     8
 0.0763439302     3     2     6     3
 0.0194123815     3     2     6     7
 0.0053895114     3     2     6     8
 0.0032018125     3     2     7     1
 -0.0150729072     3     2     7     4
 0.0401865469     3     2     7     6
 -0.0147436511     3     2     7     9
 0.0002810101     3     2     7    10
 -0.0046857580     3     2     8     1
 0.0391803036     3     2     8     4
 0.0000372057     3     2     8     6
 0.0536959954     3     2     8     9
 0.0050962706     3     2     8    10
 -0.0784755914     3     2     9     3
 0.0071703909     3     2     9     7
 0.0511398324     3     2     9     8
 0.0199567076     3     2    10     3
 -0.0035108858     3     2    10     7
 0.0065947991     3     2    10     8
 0.8587128289     3     3     1     1
 0.0299752274     3     3     1     2
 0.0104022473     3     3     1     4
 -0.0049090283     3     3     1     6
 -0.0006251344     3     3     1     9
 -0.0052266181     3     3     1    10
 0.0299752274     3     3     2     1
 0.5252816368     3     3     2     2
 0.0033488409     3     3     2     4
 -0.0763439302     3     3     2     6
 0.0784755914     3     3     2     9
 -0.0199567076     3     3     2    10
 0.0104022473     3     3     4     1
 0.0033488409     3     3     4     2
 0.5624755706     3     3     4     4
 0.0414491837     3     3     4     6
 -0.0516542822     3     3     4     9
 -0.1006802101     3     3     4    10
 0.5884651210     3     3     5     5
 0.1312870321     3     3     5    11
 -0.0049090283     3     3     6     1
 -0.0763439302     3     3     6     2
 0.0414491837     3     3     6     4
 0.3383002022     3     3     6     6
 -0.0788984013     3     3     6     9
 -0.0386054300     3     3     6    10
 0.2998537038     3     3     7     7
 -0.0567684378     3     3     7     8
 -0.0567684378     3     3     8     7