&FCI NORB=  7,NELEC= 10,MS2=0,
 ORBSYM=1,1,1,1,1,1,1
 ISYM=1,
&END
 0.9847022946     1     1     2     2
 -0.0657731146     1     1     2     4
 0.0955012465     1     1     2     6
 0.8722871661     1     1     3     3
 0.1017969076     1     1     3     7
 -0.0657731146     1     1     4     2
 0.9473112738     1     1     4     4
 0.0492510793     1     1     4     6
 0.9893406273     1     1     5     5
 0.0955012465     1     1     6     2
 0.0492510793     1     1     6     4
 0.2799932953     1     1     6     6
 0.1017969076     1     1     7     3
 0.2412626042     1     1     7     7
 -0.9847022946     1     2     2     1
 0.0071081722     1     2     2     4
 0.0008336303     1     2     2     6
 0.0313532249     1     2     3     3
 0.0080450504     1     2     3     7
 0.0657731146     1     2     4     1
 0.0359403525     1     2     4     4
 0.0051225580     1     2     4     6
 0.0404607694     1     2     5     5
 -0.0955012465     1     2     6     1
 0.0047309243     1     2     6     4
 0.0010235762     1     2     6     6
 0.0056681557     1     2     7     3
 0.0021036996     1     2     7     7
 0.0016589597     1     3     2     7
 -0.8722871661     1     3     3     1
 -0.0313532249     1     3     3     2
 0.0105986022     1     3     3     4
 -0.0035190488     1     3     3     6
 0.0006560816     1     3     4     7
 -0.0015041744     1     3     6     7
 -0.1017969076     1     3     7     1
 -0.0056681557     1     3     7     2
 0.0020241920     1     3     7     4
 -0.0026032209     1     3     7     6
 0.0657731146     1     4     2     1
 -0.0071081722     1     4     2     2
 -0.0001487284     1     4     2     6
 -0.0105986022     1     4     3     3
 -0.0015149923     1     4     3     7
 -0.9473112738     1     4     4     1
 -0.0359403525     1     4     4     2
 -0.0067120663     1     4     4     6
 -0.0134975981     1     4     5     5
 -0.0492510793     1     4     6     1
 -0.0047309243     1     4     6     2
 -0.0025642587     1     4     6     6
 -0.0020241920     1     4     7     3
 -0.0014402568     1     4     7     7
 -0.9893406273     1     5     5     1
 -0.0404607694     1     5     5     2
 0.0134975981     1     5     5     4
 -0.0062160969     1     5     5     6
 -0.0955012465     1     6     2     1
 -0.0008336303     1     6     2     2
 0.0001487284     1     6     2     4
 0.0035190488     1     6     3     3
 0.0010598687     1     6     3     7
 -0.0492510793     1     6     4     1
 -0.0051225580     1     6     4     2
 0.0067120663     1     6     4     4
 0.0062160969     1     6     5     5
 -0.2799932953     1     6     6     1
 -0.0010235762     1     6     6     2
 0.0025642587     1     6     6     4
 0.0026032209     1     6     7     3
 0.0006528806     1     6     7     7
 -0.0016589597     1     7     2     3
 -0.1017969076     1     7     3     1
 -0.0080450504     1     7     3     2
 0.0015149923     1     7     3     4
 -0.0010598687     1     7     3     6
 -0.0006560816     1     7     4     3
 0.0015041744     1     7     6     3
 -0.2412626042     1     7     7     1
 -0.0021036996     1     7     7     2
 0.0014402568     1     7     7     4
 -0.0006528806     1     7     7     6
 -0.9847022946     2     1     1     2
 0.0657731146     2     1     1     4
 -0.0955012465     2     1     1     6
 0.0313532249     2     1     3     3
 0.0056681557     2     1     3     7
 0.0071081722     2     1     4     2
 0.0359403525     2     1     4     4
 0.0047309243     2     1     4     6
 0.0404607694     2     1     5     5
 0.0008336303     2     1     6     2
 0.0051225580     2     1     6     4
 0.0010235762     2     1     6     6
 0.0080450504     2     1     7     3
 0.0021036996     2     1     7     7
 0.9847022946     2     2     1     1
 -0.0071081722     2     2     1     4
 -0.0008336303     2     2     1     6
 0.5290737493     2     2     3     3
 0.0431779537     2     2     3     7
 -0.0071081722     2     2     4     1
 0.5496951010     2     2     4     4
 0.0208693891     2     2     4     6
 0.5748293393     2     2     5     5
 -0.0008336303     2     2     6     1
 0.0208693891     2     2     6     4
 0.2559351977     2     2     6     6
 0.0431779537     2     2     7     3
 0.2243654067     2     2     7     7
 -0.0016589597     2     3     1     7
 -0.0313532249     2     3     3     1
 -0.5290737493     2     3     3     2
 0.0012881620     2     3     3     4
 -0.0444519196     2     3     3     6
 -0.0054172466     2     3     4     7
 0.0247262392     2     3     6     7
 -0.0080450504     2     3     7     1
 -0.0431779537     2     3     7     2
 -0.0012778106     2     3     7     4
 0.0182394659     2     3     7     6
 -0.0657731146     2     4     1     1
 0.0071081722     2     4     1     2
 0.0001487284     2     4     1     6
 -0.0012881620     2     4     3     3
 -0.0043780871     2     4     3     7
 -0.0359403525     2     4     4     1
 -0.5496951010     2     4     4     2
 -0.0444146201     2     4     4     6
 -0.0034274066     2     4     5     5
 -0.0051225580     2     4     6     1
 -0.0208693891     2     4     6     2
 0.0101960490     2     4     6     6
 0.0012778106     2     4     7     3
 0.0091523753     2     4     7     7
 -0.0404607694     2     5     5     1
 -0.5748293393     2     5     5     2
 0.0034274066     2     5     5     4
 -0.0446332489     2     5     5     6
 0.0955012465     2     6     1     1
 0.0008336303     2     6     1     2
 -0.0001487284     2     6     1     4
 0.0444519196     2     6     3     3
 0.0065279895     2     6     3     7
 -0.0047309243     2     6     4     1
 -0.0208693891     2     6     4     2
 0.0444146201     2     6     4     4
 0.0446332489     2     6     5     5
 -0.0010235762     2     6     6     1
 -0.2559351977     2     6     6     2
 -0.0101960490     2     6     6     4
 -0.0182394659     2     6     7     3
 0.0031234227     2     6     7     7
 0.0016589597     2     7     1     3
 -0.0056681557     2     7     3     1
 -0.0431779537     2     7     3     2
 0.0043780871     2     7     3     4
 -0.0065279895     2     7     3     6
 0.0054172466     2     7     4     3
 -0.0247262392     2     7     6     3
 -0.0021036996     2     7     7     1
 -0.2243654067     2     7     7     2
 -0.0091523753     2     7     7     4
 -0.0031234227     2     7     7     6
 -0.8722871661     3     1     1     3
 -0.1017969076     3     1     1     7
 -0.0313532249     3     1     2     3
 -0.0056681557     3     1     2     7
 0.0105986022     3     1     4     3
 0.0020241920     3     1     4     7
 -0.0035190488     3     1     6     3
 -0.0026032209     3     1     6     7
 0.0016589597     3     1     7     2
 0.0006560816     3     1     7     4
 -0.0015041744     3     1     7     6
 -0.0313532249     3     2     1     3
 -0.0080450504     3     2     1     7
 -0.5290737493     3     2     2     3
 -0.0431779537     3     2     2     7
 0.0012881620     3     2     4     3
 -0.0012778106     3     2     4     7
 -0.0444519196     3     2     6     3
 0.0182394659     3     2     6     7
 -0.0016589597     3     2     7     1
 -0.0054172466     3     2     7     4
 0.0247262392     3     2     7     6
 0.8722871661     3     3     1     1
 0.0313532249     3     3     1     2
 -0.0105986022     3     3     1     4
 0.0035190488     3     3     1     6
 0.0313532249     3     3     2     1
 0.5290737493     3     3     2     2
 -0.0012881620     3     3     2     4
 0.0444519196     3     3     2     6
 -0.0105986022     3     3     4     1
 -0.0012881620     3     3     4     2
 0.5622385087     3     3     4     4
 0.0237123136     3     3     4     6
 0.5836718212     3     3     5     5
 0.0035190488     3     3     6     1
 0.0444519196     3     3     6     2
 0.0237123136     3     3     6     4
 0.2580786641     3     3     6     6
 0.2197903629     3     3     7     7
 0.0105986022     3     4     1     3
 0.0015149923     3     4     1     7
 0.0012881620     3     4     2     3
 0.0043780871     3     4     2     7
 -0.5622385087     3     4     4     3
 -0.0524532610     3     4     4     7
 -0.0237123136     3     4     6     3
 0.0020276857     3     4     6     7
 -0.0006560816     3     4     7     1
 0.0054172466     3     4     7     2
 0.0061446136     3     4     7     6
 -0.5836718212     3     5     5     3
 -0.0542016950     3     5     5     7
 -0.0035190488     3     6     1     3
 -0.0010598687     3     6     1     7
 -0.0444519196     3     6     2     3
 -0.0065279895     3     6     2     7
 -0.0237123136     3     6     4     3
 -0.0040193777     3     6     4     7
 -0.2580786641     3     6     6     3
 -0.0142423286     3     6     6     7
 0.0015041744     3     6     7     1
 -0.0247262392     3     6     7     2
 -0.0061446136     3     6     7     4
 0.1017969076     3     7     1     1
 0.0080450504     3     7     1     2
 -0.0015149923     3     7     1     4
 0.0010598687     3     7     1     6
 0.0056681557     3     7     2     1
 0.0431779537     3     7     2     2
 -0.0043780871     3     7     2     4
 0.0065279895     3     7     2     6
 -0.0020241920     3     7     4     1
 0.0012778106     3     7     4     2
 0.0524532610     3     7     4     4
 0.0040193777     3     7     4     6
 0.0542016950     3     7     5     5
 0.0026032209     3     7     6     1
 -0.0182394659     3     7     6     2
 -0.0020276857     3     7     6     4
 0.0142423286     3     7     6     6
 -0.2197903629     3     7     7     3
 0.0657731146     4     1     1     2
 -0.9473112738     4     1     1     4
 -0.0492510793     4     1     1     6
 -0.0071081722     4     1     2     2
 -0.0359403525     4     1     2     4
 -0.0047309243     4     1     2     6
 -0.0105986022     4     1     3     3
 -0.0020241920     4     1     3     7
 -0.0134975981     4     1     5     5
 -0.0001487284     4     1     6     2
 -0.0067120663     4     1     6     4
 -0.0025642587     4     1     6     6
 -0.0015149923     4     1     7     3
 -0.0014402568     4     1     7     7
 -0.0657731146     4     2     1     1
 -0.0359403525     4     2     1     4
 -0.0051225580     4     2     1     6
 0.0071081722     4     2     2     1
 -0.5496951010     4     2     2     4
 -0.0208693891     4     2     2     6
 -0.0012881620     4     2     3     3
 0.0012778106     4     2     3     7
 -0.0034274066     4     2     5     5
 0.0001487284     4     2     6     1
 -0.0444146201     4     2     6     4
 0.0101960490     4     2     6     6
 -0.0043780871     4     2     7     3
 0.0091523753     4     2     7     7
 -0.0006560816     4     3     1     7
 0.0054172466     4     3     2     7
 0.0105986022     4     3     3     1
 0.0012881620     4     3     3     2
 -0.5622385087     4     3     3     4
 -0.0237123136     4     3     3     6
 0.0061446136     4     3     6     7
 0.0015149923     4     3     7     1
 0.0043780871     4     3     7     2
 -0.0524532610     4     3     7     4
 0.0020276857     4     3     7     6
 0.9473112738     4     4     1     1
 0.0359403525     4     4     1     2
 0.0067120663     4     4     1     6
 0.0359403525     4     4     2     1
 0.5496951010     4     4     2     2
 0.0444146201     4     4     2     6
 0.5622385087     4     4     3     3
 0.0524532610     4     4     3     7
 0.6007710140     4     4     5     5
 0.0067120663     4     4     6     1
 0.0444146201     4     4     6     2
 0.2470328163     4     4     6     6
 0.0524532610     4     4     7     3
 0.2174479818     4     4     7     7
 0.0134975981     4     5     5     1
 0.0034274066     4     5     5     2
 -0.6007710140     4     5     5     4
 -0.0275604522     4     5     5     6
 0.0492510793     4     6     1     1
 0.0051225580     4     6     1     2
 -0.0067120663     4     6     1     4
 0.0047309243     4     6     2     1
 0.0208693891     4     6     2     2
 -0.0444146201     4     6     2     4
 0.0237123136     4     6     3     3
 0.0040193777     4     6     3     7
 0.0275604522     4     6     5     5
 0.0025642587     4     6     6     1
 -0.0101960490     4     6     6     2
 -0.2470328163     4     6     6     4
 -0.0020276857     4     6     7     3
 0.0022634115     4     6     7     7
 0.0006560816     4     7     1     3
 -0.0054172466     4     7     2     3
 0.0020241920     4     7     3     1
 -0.0012778106     4     7     3     2
 -0.0524532610     4     7     3     4
 -0.0040193777     4     7     3     6
 -0.0061446136     4     7     6     3
 0.0014402568     4     7     7     1
 -0.0091523753     4     7     7     2
 -0.2174479818     4     7     7     4
 -0.0022634115     4     7     7     6
 -0.9893406273     5     1     1     5
 -0.0404607694     5     1     2     5
 0.0134975981     5     1     4     5
 -0.0062160969     5     1     6     5
 -0.0404607694     5     2     1     5
 -0.5748293393     5     2     2     5
 0.0034274066     5     2     4     5
 -0.0446332489     5     2     6     5
 -0.5836718212     5     3     3     5
 -0.0542016950     5     3     7     5
 0.0134975981     5     4     1     5
 0.0034274066     5     4     2     5
 -0.6007710140     5     4     4     5
 -0.0275604522     5     4     6     5
 0.9893406273     5     5     1     1
 0.0404607694     5     5     1     2
 -0.0134975981     5     5     1     4
 0.0062160969     5     5     1     6
 0.0404607694     5     5     2     1
 0.5748293393     5     5     2     2
 -0.0034274066     5     5     2     4
 0.0446332489     5     5     2     6
 0.5836718212     5     5     3     3
 0.0542016950     5     5     3     7
 -0.0134975981     5     5     4     1
 -0.0034274066     5     5     4     2
 0.6007710140     5     5     4     4
 0.0275604522     5     5     4     6
 0.0062160969     5     5     6     1
 0.0446332489     5     5     6     2
 0.0275604522     5     5     6     4
 0.2531812146     5     5     6     6
 0.0542016950     5     5     7     3
 0.2196853883     5     5     7     7
 -0.0062160969     5     6     1     5
 -0.0446332489     5     6     2     5
 -0.0275604522     5     6     4     5
 -0.2531812146     5     6     6     5
 -0.0542016950     5     7     3     5
 -0.2196853883     5     7     7     5
 -0.0955012465     6     1     1     2
 -0.0492510793     6     1     1     4
 -0.2799932953     6     1     1     6
 -0.0008336303     6     1     2     2
 -0.0051225580     6     1     2     4
 -0.0010235762     6     1     2     6
 0.0035190488     6     1     3     3
 0.0026032209     6     1     3     7
 0.0001487284     6     1     4     2
 0.0067120663     6     1     4     4
 0.0025642587     6     1     4     6
 0.0062160969     6     1     5     5
 0.0010598687     6     1     7     3
 0.0006528806     6     1     7     7
 0.0955012465     6     2     1     1
 -0.0047309243     6     2     1     4
 -0.0010235762     6     2     1     6
 0.0008336303     6     2     2     1
 -0.0208693891     6     2     2     4
 -0.2559351977     6     2     2     6
 0.0444519196     6     2     3     3
 -0.0182394659     6     2     3     7
 -0.0001487284     6     2     4     1
 0.0444146201     6     2     4     4
 -0.0101960490     6     2     4     6
 0.0446332489     6     2     5     5
 0.0065279895     6     2     7     3
 0.0031234227     6     2     7     7
 0.0015041744     6     3     1     7
 -0.0247262392     6     3     2     7
 -0.0035190488     6     3     3     1
 -0.0444519196     6     3     3     2
 -0.0237123136     6     3     3     4
 -0.2580786641     6     3     3     6
 -0.0061446136     6     3     4     7
 -0.0010598687     6     3     7     1
 -0.0065279895     6     3     7     2
 -0.0040193777     6     3     7     4
 -0.0142423286     6     3     7     6
 0.0492510793     6     4     1     1
 0.0047309243     6     4     1     2
 0.0025642587     6     4     1     6
 0.0051225580     6     4     2     1
 0.0208693891     6     4     2     2
 -0.0101960490     6     4     2     6
 0.0237123136     6     4     3     3
 -0.0020276857     6     4     3     7
 -0.0067120663     6     4     4     1
 -0.0444146201     6     4     4     2
 -0.2470328163     6     4     4     6
 0.0275604522     6     4     5     5
 0.0040193777     6     4     7     3
 0.0022634115     6     4     7     7
 -0.0062160969     6     5     5     1
 -0.0446332489     6     5     5     2
 -0.0275604522     6     5     5     4
 -0.2531812146     6     5     5     6
 0.2799932953     6     6     1     1
 0.0010235762     6     6     1     2
 -0.0025642587     6     6     1     4
 0.0010235762     6     6     2     1
 0.2559351977     6     6     2     2
 0.0101960490     6     6     2     4
 0.2580786641     6     6     3     3
 0.0142423286     6     6     3     7
 -0.0025642587     6     6     4     1
 0.0101960490     6     6     4     2
 0.2470328163     6     6     4     4
 0.2531812146     6     6     5     5
 0.0142423286     6     6     7     3
 0.1532213384     6     6     7     7
 -0.0015041744     6     7     1     3
 0.0247262392     6     7     2     3
 -0.0026032209     6     7     3     1
 0.0182394659     6     7     3     2
 0.0020276857     6     7     3     4
 -0.0142423286     6     7     3     6
 0.0061446136     6     7     4     3
 -0.0006528806     6     7     7     1
 -0.0031234227     6     7     7     2
 -0.0022634115     6     7     7     4
 -0.1532213384     6     7     7     6
 -0.1017969076     7     1     1     3
 -0.2412626042     7     1     1     7
 -0.0080450504     7     1     2     3
 -0.0021036996     7     1     2     7
 -0.0016589597     7     1     3     2
 -0.0006560816     7     1     3     4
 0.0015041744     7     1     3     6
 0.0015149923     7     1     4     3
 0.0014402568     7     1     4     7
 -0.0010598687     7     1     6     3
 -0.0006528806     7     1     6     7
 -0.0056681557     7     2     1     3
 -0.0021036996     7     2     1     7
 -0.0431779537     7     2     2     3
 -0.2243654067     7     2     2     7
 0.0016589597     7     2     3     1
 0.0054172466     7     2     3     4
 -0.0247262392     7     2     3     6
 0.0043780871     7     2     4     3
 -0.0091523753     7     2     4     7
 -0.0065279895     7     2     6     3
 -0.0031234227     7     2     6     7
 0.1017969076     7     3     1     1
 0.0056681557     7     3     1     2
 -0.0020241920     7     3     1     4
 0.0026032209     7     3     1     6
 0.0080450504     7     3     2     1
 0.0431779537     7     3     2     2
 0.0012778106     7     3     2     4
 -0.0182394659     7     3     2     6
 -0.2197903629     7     3     3     7
 -0.0015149923     7     3     4     1
 -0.0043780871     7     3     4     2
 0.0524532610     7     3     4     4
 -0.0020276857     7     3     4     6
 0.0542016950     7     3     5     5
 0.0010598687     7     3     6     1
 0.0065279895     7     3     6     2
 0.0040193777     7     3     6     4
 0.0142423286     7     3     6     6
 0.0020241920     7     4     1     3
 0.0014402568     7     4     1     7
 -0.0012778106     7     4     2     3
 -0.0091523753     7     4     2     7
 0.0006560816     7     4     3     1
 -0.0054172466     7     4     3     2
 -0.0061446136     7     4     3     6
 -0.0524532610     7     4     4     3
 -0.2174479818     7     4     4     7
 -0.0040193777     7     4     6     3
 -0.0022634115     7     4     6     7
 -0.0542016950     7     5     5     3
 -0.2196853883     7     5     5     7
 -0.0026032209     7     6     1     3
 -0.0006528806     7     6     1     7
 0.0182394659     7     6     2     3
 -0.0031234227     7     6     2     7
 -0.0015041744     7     6     3     1
 0.0247262392     7     6     3     2
 0.0061446136     7     6     3     4
 0.0020276857     7     6     4     3
 -0.0022634115     7     6     4     7
 -0.0142423286     7     6     6     3
 -0.1532213384     7     6     6     7
 0.2412626042     7     7     1     1
 0.0021036996     7     7     1     2
 -0.0014402568     7     7     1     4
 0.0006528806     7     7     1     6
 0.0021036996     7     7     2     1
 0.2243654067     7     7     2     2
 0.0091523753     7     7     2     4
 0.0031234227     7     7     2     6
 0.2197903629     7     7     3     3
 -0.0014402568     7     7     4     1
 0.0091523753     7     7     4     2
 0.2174479818     7     7     4     4
 0.0022634115     7     7     4     6
 0.2196853883     7     7     5     5
 0.0006528806     7     7     6     1
 0.0031234227     7     7     6     2
 0.0022634115     7     7     6     4
 0.1532213384     7     7     6     6
0.0 0 0 0 0
 0.9847022946     1     1     2     2
 -0.0657731146     1     1     2     4
 0.0955012465     1     1     2     6
 0.8722871661     1     1     3     3
 0.1017969076     1     1     3     7
 -0.0657731146     1     1     4     2
 0.9473112738     1     1     4     4
 0.0492510793     1     1     4     6
 0.9893406273     1     1     5     5
 0.0955012465     1     1     6     2
 0.0492510793     1     1     6     4
 0.2799932953     1     1     6     6
 0.1017969076     1     1     7     3
 0.2412626042     1     1     7     7
 -0.9847022946     1     2     2     1
 0.0071081722     1     2     2     4
 0.0008336303     1     2     2     6
 0.0313532249     1     2     3     3
 0.0080450504     1     2     3     7
 0.0657731146     1     2     4     1
 0.0359403525     1     2     4     4
 0.0051225580     1     2     4     6
 0.0404607694     1     2     5     5
 -0.0955012465     1     2     6     1
 0.0047309243     1     2     6     4
 0.0010235762     1     2     6     6
 0.0056681557     1     2     7     3
 0.0021036996     1     2     7     7
 0.0016589597     1     3     2     7
 -0.8722871661     1     3     3     1
 -0.0313532249     1     3     3     2
 0.0105986022     1     3     3     4
 -0.0035190488     1     3     3     6
 0.0006560816     1     3     4     7
 -0.0015041744     1     3     6     7
 -0.1017969076     1     3     7     1
 -0.0056681557     1     3     7     2
 0.0020241920     1     3     7     4
 -0.0026032209     1     3     7     6
 0.0657731146     1     4     2     1
 -0.0071081722     1     4     2     2
 -0.0001487284     1     4     2     6
 -0.0105986022     1     4     3     3
 -0.0015149923     1     4     3     7
 -0.9473112738     1     4     4     1
 -0.0359403525     1     4     4     2
 -0.0067120663     1     4     4     6
 -0.0134975981     1     4     5     5
 -0.0492510793     1     4     6     1
 -0.0047309243     1     4     6     2
 -0.0025642587     1     4     6     6
 -0.0020241920     1     4     7     3
 -0.0014402568     1     4     7     7
 -0.9893406273     1     5     5     1
 -0.0404607694     1     5     5     2
 0.0134975981     1     5     5     4
 -0.0062160969     1     5     5     6
 -0.0955012465     1     6     2     1
 -0.0008336303     1     6     2     2
 0.0001487284     1     6     2     4
 0.0035190488     1     6     3     3
 0.0010598687     1     6     3     7
 -0.0492510793     1     6     4     1
 -0.0051225580     1     6     4     2
 0.0067120663     1     6     4     4
 0.0062160969     1     6     5     5
 -0.2799932953     1     6     6     1
 -0.0010235762     1     6     6     2
 0.0025642587     1     6     6     4
 0.0026032209     1     6     7     3
 0.0006528806     1     6     7     7
 -0.0016589597     1     7     2     3
 -0.1017969076     1     7     3     1
 -0.0080450504     1     7     3     2
 0.0015149923     1     7     3     4
 -0.0010598687     1     7     3     6
 -0.0006560816     1     7     4     3
 0.0015041744     1     7     6     3
 -0.2412626042     1     7     7     1
 -0.0021036996     1     7     7     2
 0.0014402568     1     7     7     4
 -0.0006528806     1     7     7     6
 -0.9847022946     2     1     1     2
 0.0657731146     2     1     1     4
 -0.0955012465     2     1     1     6
 0.0313532249     2     1     3     3
 0.0056681557     2     1     3     7
 0.0071081722     2     1     4     2
 0.0359403525     2     1     4     4
 0.0047309243     2     1     4     6
 0.0404607694     2     1     5     5
 0.0008336303     2     1     6     2
 0.0051225580     2     1     6     4
 0.0010235762     2     1     6     6
 0.0080450504     2     1     7     3
 0.0021036996     2     1     7     7
 0.9847022946     2     2     1     1
 -0.0071081722     2     2     1     4
 -0.0008336303     2     2     1     6
 0.5290737493     2     2     3     3
 0.0431779537     2     2     3     7
 -0.0071081722     2     2     4     1
 0.5496951010     2     2     4     4
 0.0208693891     2     2     4     6
 0.5748293393     2     2     5     5
 -0.0008336303     2     2     6     1
 0.0208693891     2     2     6     4
 0.2559351977     2     2     6     6
 0.0431779537     2     2     7     3
 0.2243654067     2     2     7     7
 -0.0016589597     2     3     1     7
 -0.0313532249     2     3     3     1
 -0.5290737493     2     3     3     2
 0.0012881620     2     3     3     4
 -0.0444519196     2     3     3     6
 -0.0054172466     2     3     4     7
 0.0247262392     2     3     6     7
 -0.0080450504     2     3     7     1
 -0.0431779537     2     3     7     2
 -0.0012778106     2     3     7     4
 0.0182394659     2     3     7     6
 -0.0657731146     2     4     1     1
 0.0071081722     2     4     1     2
 0.0001487284     2     4     1     6
 -0.0012881620     2     4     3     3
 -0.0043780871     2     4     3     7
 -0.0359403525     2     4     4     1
 -0.5496951010     2     4     4     2
 -0.0444146201     2     4     4     6
 -0.0034274066     2     4     5     5
 -0.0051225580     2     4     6     1
 -0.0208693891     2     4     6     2
 0.0101960490     2     4     6     6
 0.0012778106     2     4     7     3
 0.0091523753     2     4     7     7
 -0.0404607694     2     5     5     1
 -0.5748293393     2     5     5     2
 0.0034274066     2     5     5     4
 -0.0446332489     2     5     5     6
 0.0955012465     2     6     1     1
 0.0008336303     2     6     1     2
 -0.0001487284     2     6     1     4
 0.0444519196     2     6     3     3
 0.0065279895     2     6     3     7
 -0.0047309243     2     6     4     1
 -0.0208693891     2     6     4     2
 0.0444146201     2     6     4     4
 0.0446332489     2     6     5     5
 -0.0010235762     2     6     6     1
 -0.2559351977     2     6     6     2
 -0.0101960490     2     6     6     4
 -0.0182394659     2     6     7     3
 0.0031234227     2     6     7     7
 0.0016589597     2     7     1     3
 -0.0056681557     2     7     3     1
 -0.0431779537     2     7     3     2
 0.0043780871     2     7     3     4
 -0.0065279895     2     7     3     6
 0.0054172466     2     7     4     3
 -0.0247262392     2     7     6     3
 -0.0021036996     2     7     7     1
 -0.2243654067     2     7     7     2
 -0.0091523753     2     7     7     4
 -0.0031234227     2     7     7     6
 -0.8722871661     3     1     1     3
 -0.1017969076     3     1     1     7
 -0.0313532249     3     1     2     3
 -0.0056681557     3     1     2     7
 0.0105986022     3     1     4     3
 0.0020241920     3     1     4     7
 -0.0035190488     3     1     6     3
 -0.0026032209     3     1     6     7
 0.0016589597     3     1     7     2
 0.0006560816     3     1     7     4
 -0.0015041744     3     1     7     6
 -0.0313532249     3     2     1     3
 -0.0080450504     3     2     1     7
 -0.5290737493     3     2     2     3
 -0.0431779537     3     2     2     7
 0.0012881620     3     2     4     3
 -0.0012778106     3     2     4     7
 -0.0444519196     3     2     6     3
 0.0182394659     3     2     6     7
 -0.0016589597     3     2     7     1
 -0.0054172466     3     2     7     4
 0.0247262392     3     2     7     6
 0.8722871661     3     3     1     1
 0.0313532249     3     3     1     2
 -0.0105986022     3     3     1     4
 0.0035190488     3     3     1     6
 0.0313532249     3     3     2     1
 0.5290737493     3     3     2     2
 -0.0012881620     3     3     2     4
 0.0444519196     3     3     2     6
 -0.0105986022     3     3     4     1
 -0.0012881620     3     3     4     2
 0.5622385087     3     3     4     4
 0.0237123136     3     3     4     6
 0.5836718212     3     3     5     5
 0.0035190488     3     3     6     1
 0.0444519196     3     3     6     2
 0.0237123136     3     3     6     4
 0.2580786641     3     3     6     6
 0.2197903629     3     3     7     7
 0.0105986022     3     4     1     3
 0.0015149923     3     4     1     7
 0.0012881620     3     4     2     3
 0.0043780871     3     4     2     7
 -0.5622385087     3     4     4     3
 -0.0524532610     3     4     4     7
 -0.0237123136     3     4     6     3
 0.0020276857     3     4     6     7
 -0.0006560816     3     4     7     1
 0.0054172466     3     4     7     2
 0.0061446136     3     4     7     6
 -0.5836718212     3     5     5     3
 -0.0542016950     3     5     5     7
 -0.0035190488     3     6     1     3
 -0.0010598687     3     6     1     7
 -0.0444519196     3     6     2     3
 -0.0065279895     3     6     2     7
 -0.0237123136     3     6     4     3
 -0.0040193777     3     6     4     7
 -0.2580786641     3     6     6     3
 -0.0142423286     3     6     6     7
 0.0015041744     3     6     7     1
 -0.0247262392     3     6     7     2
 -0.0061446136     3     6     7     4
 0.1017969076     3     7     1     1
 0.0080450504     3     7     1     2
 -0.0015149923     3     7     1     4
 0.0010598687     3     7     1     6
 0.0056681557     3     7     2     1
 0.0431779537     3     7     2     2
 -0.0043780871     3     7     2     4
 0.0065279895     3     7     2     6
 -0.0020241920     3     7     4     1
 0.0012778106     3     7     4     2
 0.0524532610     3     7     4     4
 0.0040193777     3     7     4     6
 0.0542016950     3     7     5     5
 0.0026032209     3     7     6     1
 -0.0182394659     3     7     6     2
 -0.0020276857     3     7     6     4
 0.0142423286     3     7     6     6