&FCI NORB= 11,NELEC= 16,MS2=0,
 ORBSYM=1,1,1,1,1,1,1,1,1,1,1
 ISYM=1,
&END
 0.3952084674     1     1     2     2
 0.0000000002     1     1     2     3
 -0.0051096189     1     1     2     4
 0.0000000007     1     1     2     7
 -0.0000000001     1     1     2    10
 -0.0015492791     1     1     2    11
 0.0000000002     1     1     3     2
 0.6004684970     1     1     3     3
 -0.0000000146     1     1     3     4
 0.1111591374     1     1     3     7
 0.0412941433     1     1     3    10
 -0.0000000044     1     1     3    11
 -0.0051096189     1     1     4     2
 -0.0000000146     1     1     4     3
 0.4815199512     1     1     4     4
 0.0000000131     1     1     4     7
 -0.0000000052     1     1     4    10
 0.0719469549     1     1     4    11
 0.4779881208     1     1     5     5
 0.0000000144     1     1     5     6
 0.0000000078     1     1     5     8
 0.0330810203     1     1     5     9
 0.0000000144     1     1     6     5
 0.4786764468     1     1     6     6
 -0.0360375934     1     1     6     8
 -0.0000000071     1     1     6     9
 0.0000000007     1     1     7     2
 0.1111591374     1     1     7     3
 0.0000000131     1     1     7     4
 0.5611688460     1     1     7     7
 -0.0566006085     1     1     7    10
 0.0000000017     1     1     7    11
 0.0000000078     1     1     8     5
 -0.0360375934     1     1     8     6
 0.4870331990     1     1     8     8
 0.0000000126     1     1     8     9
 0.0330810203     1     1     9     5
 -0.0000000071     1     1     9     6
 0.0000000126     1     1     9     8
 0.4409993034     1     1     9     9
 -0.0000000001     1     1    10     2
 0.0412941433     1     1    10     3
 -0.0000000052     1     1    10     4
 -0.0566006085     1     1    10     7
 0.2191736693     1     1    10    10
 -0.0000000038     1     1    10    11
 -0.0015492791     1     1    11     2
 -0.0000000044     1     1    11     3
 0.0719469549     1     1    11     4
 0.0000000017     1     1    11     7
 -0.0000000038     1     1    11    10
 0.2134819099     1     1    11    11
 -0.3952084674     1     2     2     1
 -0.0045262514     1     2     2     3
 -0.0000000003     1     2     2     4
 -0.0129791188     1     2     2     7
 0.0025236510     1     2     2    10
 -0.0000000001     1     2     2    11
 -0.0000000002     1     2     3     1
 0.1476138844     1     2     3     4
 0.0437762843     1     2     3    11
 0.0051096189     1     2     4     1
 0.1477367078     1     2     4     3
 -0.1314459747     1     2     4     7
 0.0522445182     1     2     4    10
 -0.0000000008     1     2     5     5
 -0.1454591554     1     2     5     6
 -0.0798603060     1     2     5     8
 0.0000000001     1     2     5     9
 -0.1454486520     1     2     6     5
 0.0000000008     1     2     6     6
 0.0000000002     1     2     6     8
 0.0706220041     1     2     6     9
 -0.0000000007     1     2     7     1
 -0.1317886459     1     2     7     4
 -0.0173973153     1     2     7    11
 -0.0796262192     1     2     8     5
 0.0000000002     1     2     8     6
 -0.1269933280     1     2     8     9
 0.0000000001     1     2     9     5
 0.0704112407     1     2     9     6
 -0.1269849683     1     2     9     8
 0.0000000001     1     2    10     1
 0.0523093112     1     2    10     4
 0.0381264929     1     2    10    11
 0.0015492791     1     2    11     1
 0.0438140770     1     2    11     3
 -0.0172912320     1     2    11     7
 0.0381064008     1     2    11    10
 -0.0000000002     1     3     2     1
 0.0045262514     1     3     2     2
 -0.0001228234     1     3     2     4
 -0.0000377927     1     3     2    11
 -0.6004684970     1     3     3     1
 -0.0000000002     1     3     3     4
 -0.0096149569     1     3     3     7
 0.0025717212     1     3     3    10
 -0.0000000001     1     3     3    11
 0.0000000146     1     3     4     1
 -0.1477367078     1     3     4     2
 -0.0052493837     1     3     4     4
 -0.0000000005     1     3     4     7
 0.0000000001     1     3     4    10
 -0.0016133965     1     3     4    11
 -0.0109760086     1     3     5     5
 -0.0000000005     1     3     5     6
 -0.0000000003     1     3     5     8
 -0.0020462321     1     3     5     9
 -0.0000000005     1     3     6     5
 -0.0109044426     1     3     6     6
 0.0021761070     1     3     6     8
 0.0000000003     1     3     6     9
 -0.1111591374     1     3     7     1
 -0.0000000006     1     3     7     4
 -0.0178898425     1     3     7     7
 0.0051699911     1     3     7    10
 -0.0000000002     1     3     7    11
 -0.0000000002     1     3     8     5
 0.0019174200     1     3     8     6
 -0.0104317993     1     3     8     8
 -0.0000000006     1     3     8     9
 -0.0018642806     1     3     9     5
 0.0000000002     1     3     9     6
 -0.0000000006     1     3     9     8
 -0.0083740576     1     3     9     9
 -0.0412941433     1     3    10     1
 0.0000000001     1     3    10     4
 0.0028092157     1     3    10     7
 -0.0007907878     1     3    10    10
 0.0000000001     1     3    10    11
 0.0000000044     1     3    11     1
 -0.0438140770     1     3    11     2
 -0.0011582999     1     3    11     4
 -0.0000000002     1     3    11     7
 0.0000000001     1     3    11    10
 -0.0004933585     1     3    11    11
 0.0051096189     1     4     2     1
 0.0000000003     1     4     2     2
 0.0001228234     1     4     2     3
 0.0003426712     1     4     2     7
 -0.0000647930     1     4     2    10
 0.0000000146     1     4     3     1
 -0.1476138844     1     4     3     2
 0.0000000002     1     4     3     3
 0.0000000001     1     4     3     7
 -0.0004550966     1     4     3    11
 -0.4815199512     1     4     4     1
 0.0052493837     1     4     4     3
 0.0025814849     1     4     4     7
 -0.0001252589     1     4     4    10
 0.0000000005     1     4     5     5
 0.0064079107     1     4     5     6
 0.0015392881     1     4     5     8
 0.0000000001     1     4     5     9
 0.0064434761     1     4     6     5
 0.0000000004     1     4     6     6
 -0.0000000001     1     4     6     8
 -0.0011800473     1     4     6     9
 -0.0000000131     1     4     7     1
 0.1317886459     1     4     7     2
 0.0000000006     1     4     7     3
 0.0000000008     1     4     7     7
 -0.0000000001     1     4     7    10
 0.0003174229     1     4     7    11
 0.0038125289     1     4     8     5
 -0.0000000001     1     4     8     6
 0.0000000005     1     4     8     8
 0.0062931647     1     4     8     9
 0.0000000001     1     4     9     5
 -0.0033569210     1     4     9     6
 0.0066105197     1     4     9     8
 0.0000000004     1     4     9     9
 0.0000000052     1     4    10     1
 -0.0523093112     1     4    10     2
 -0.0000000001     1     4    10     3
 -0.0000000002     1     4    10     7
 0.0005097131     1     4    10    11
 -0.0719469549     1     4    11     1
 0.0011582999     1     4    11     3
 0.0007634606     1     4    11     7
 0.0005742482     1     4    11    10
 -0.0000105034     1     5     2     6
 -0.0002340868     1     5     2     8
 -0.0000000001     1     5     3     8
 -0.0001819515     1     5     3     9
 -0.0000355654     1     5     4     6
 -0.0022732408     1     5     4     8
 -0.4779881208     1     5     5     1
 0.0000000008     1     5     5     2
 0.0109760086     1     5     5     3
 -0.0000000005     1     5     5     4
 -0.0034365489     1     5     5     7
 0.0020784277     1     5     5    10
 -0.0000000001     1     5     5    11
 -0.0000000144     1     5     6     1
 0.1454486520     1     5     6     2
 0.0000000005     1     5     6     3
 -0.0064434761     1     5     6     4
 0.0000000002     1     5     6     7
 0.0000000001     1     5     6    10
 -0.0011467532     1     5     6    11
 -0.0000000001     1     5     7     8
 0.0010704181     1     5     7     9
 -0.0000000078     1     5     8     1
 0.0796262192     1     5     8     2
 0.0000000002     1     5     8     3
 -0.0038125289     1     5     8     4
 0.0000000001     1     5     8     7
 -0.0009518765     1     5     8    11
 -0.0330810203     1     5     9     1
 -0.0000000001     1     5     9     2
 0.0018642806     1     5     9     3
 -0.0000000001     1     5     9     4
 -0.0006937699     1     5     9     7
 0.0005760805     1     5     9    10
 -0.0000793203     1     5    10     9
 -0.0000052984     1     5    11     6
 -0.0000524152     1     5    11     8
 0.0000105034     1     6     2     5
 0.0002107634     1     6     2     9
 0.0002586870     1     6     3     8
 0.0000000001     1     6     3     9
 0.0000355654     1     6     4     5
 0.0021768737     1     6     4     9
 -0.0000000144     1     6     5     1
 0.1454591554     1     6     5     2
 0.0000000005     1     6     5     3
 -0.0064079107     1     6     5     4
 0.0000000002     1     6     5     7
 0.0000000001     1     6     5    10
 -0.0011414548     1     6     5    11
 -0.4786764468     1     6     6     1
 -0.0000000008     1     6     6     2
 0.0109044426     1     6     6     3
 -0.0000000004     1     6     6     4
 -0.0034989763     1     6     6     7
 0.0020747477     1     6     6    10
 -0.0000000001     1     6     6    11
 -0.0012921946     1     6     7     8
 0.0000000001     1     6     7     9
 0.0360375934     1     6     8     1
 -0.0000000002     1     6     8     2
 -0.0019174200     1     6     8     3
 0.0000000001     1     6     8     4
 0.0007943905     1     6     8     7
 -0.0006390086     1     6     8    10
 0.0000000071     1     6     9     1
 -0.0704112407     1     6     9     2
 -0.0000000002     1     6     9     3
 0.0033569210     1     6     9     4
 0.0007033638     1     6     9    11
 0.0000539312     1     6    10     8
 0.0000052984     1     6    11     5
 -0.0000092583     1     6    11     9
 -0.0000000007     1     7     2     1
 0.0129791188     1     7     2     2
 -0.0003426712     1     7     2     4
 -0.0001060833     1     7     2    11
 -0.1111591374     1     7     3     1
 0.0096149569     1     7     3     3
 -0.0000000001     1     7     3     4
 0.0023607754     1     7     3    10
 -0.0000000131     1     7     4     1
 0.1314459747     1     7     4     2
 0.0000000005     1     7     4     3
 -0.0025814849     1     7     4     4
 0.0000000001     1     7     4    10
 -0.0004460377     1     7     4    11
 0.0034365489     1     7     5     5
 -0.0000000002     1     7     5     6
 -0.0000000002     1     7     5     8
 0.0017641880     1     7     5     9
 -0.0000000002     1     7     6     5
 0.0034989763     1     7     6     6
 -0.0020865851     1     7     6     8
 0.0000000001     1     7     6     9
 -0.5611688460     1     7     7     1
 0.0178898425     1     7     7     3
 -0.0000000008     1     7     7     4
 0.0042904232     1     7     7    10
 -0.0000000002     1     7     7    11
 -0.0000000001     1     7     8     5
 -0.0007943905     1     7     8     6
 0.0029042325     1     7     8     8
 -0.0000000001     1     7     8     9
 0.0006937699     1     7     9     5
 -0.0000000001     1     7     9     8
 0.0021926341     1     7     9     9
 0.0566006085     1     7    10     1
 -0.0028092157     1     7    10     3
 0.0000000002     1     7    10     4
 -0.0004177326     1     7    10    10
 0.0000000001     1     7    10    11
 -0.0000000017     1     7    11     1
 0.0172912320     1     7    11     2
 0.0000000002     1     7    11     3
 -0.0007634606     1     7    11     4
 0.0000000001     1     7    11    10
 -0.0004895059     1     7    11    11
 0.0002340868     1     8     2     5
 -0.0000083597     1     8     2     9
 0.0000000001     1     8     3     5
 -0.0002586870     1     8     3     6
 0.0022732408     1     8     4     5
 -0.0003173550     1     8     4     9
 -0.0000000078     1     8     5     1
 0.0798603060     1     8     5     2
 0.0000000003     1     8     5     3
 -0.0015392881     1     8     5     4
 0.0000000002     1     8     5     7
 -0.0008994613     1     8     5    11
 0.0360375934     1     8     6     1
 -0.0000000002     1     8     6     2
 -0.0021761070     1     8     6     3
 0.0000000001     1     8     6     4
 0.0020865851     1     8     6     7
 -0.0006929398     1     8     6    10
 0.0000000001     1     8     7     5
 0.0012921946     1     8     7     6
 -0.4870331990     1     8     8     1
 0.0104317993     1     8     8     3
 -0.0000000005     1     8     8     4
 -0.0029042325     1     8     8     7
 0.0026345923     1     8     8    10
 -0.0000000002     1     8     8    11
 -0.0000000126     1     8     9     1
 0.1269849683     1     8     9     2
 0.0000000006     1     8     9     3
 -0.0066105197     1     8     9     4
 0.0000000001     1     8     9     7
 0.0000000001     1     8     9    10
 -0.0025012550     1     8     9    11
 -0.0000539312     1     8    10     6
 0.0000524152     1     8    11     5
 -0.0000040522     1     8    11     9
 -0.0002107634     1     9     2     6
 0.0000083597     1     9     2     8
 0.0001819515     1     9     3     5
 -0.0000000001     1     9     3     6
 -0.0021768737     1     9     4     6
 0.0003173550     1     9     4     8
 -0.0330810203     1     9     5     1
 -0.0000000001     1     9     5     2
 0.0020462321     1     9     5     3
 -0.0000000001     1     9     5     4
 -0.0017641880     1     9     5     7
 0.0006554008     1     9     5    10
 0.0000000071     1     9     6     1
 -0.0706220041     1     9     6     2
 -0.0000000003     1     9     6     3
 0.0011800473     1     9     6     4
 -0.0000000001     1     9     6     7
 0.0007126221     1     9     6    11
 -0.0010704181     1     9     7     5
 -0.0000000001     1     9     7     6
 -0.0000000126     1     9     8     1
 0.1269933280     1     9     8     2
 0.0000000006     1     9     8     3
 -0.0062931647     1     9     8     4
 0.0000000001     1     9     8     7
 0.0000000001     1     9     8    10
 -0.0024972028     1     9     8    11
 -0.4409993034     1     9     9     1
 0.0083740576     1     9     9     3
 -0.0000000004     1     9     9     4
 -0.0021926341     1     9     9     7
 0.0019473294     1     9     9    10
 -0.0000000001     1     9     9    11
 0.0000793203     1     9    10     5
 0.0000092583     1     9    11     6
 0.0000040522     1     9    11     8
 0.0000000001     1    10     2     1
 -0.0025236510     1    10     2     2
 0.0000647930     1    10     2     4
 0.0000200921     1    10     2    11
 -0.0412941433     1    10     3     1
 -0.0025717212     1    10     3     3
 -0.0023607754     1    10     3     7
 0.0000000052     1    10     4     1
 -0.0522445182     1    10     4     2
 -0.0000000001     1    10     4     3
 0.0001252589     1    10     4     4
 -0.0000000001     1    10     4     7
 -0.0000645351     1    10     4    11
 -0.0020784277     1    10     5     5
 -0.0000000001     1    10     5     6
 -0.0006554008     1    10     5     9
 -0.0000000001     1    10     6     5
 -0.0020747477     1    10     6     6
 0.0006929398     1    10     6     8
 0.0566006085     1    10     7     1
 -0.0051699911     1    10     7     3
 0.0000000001     1    10     7     4
 -0.0042904232     1    10     7     7
 0.0006390086     1    10     8     6
 -0.0026345923     1    10     8     8
 -0.0000000001     1    10     8     9
 -0.0005760805     1    10     9     5
 -0.0000000001     1    10     9     8
 -0.0019473294     1    10     9     9
 -0.2191736693     1    10    10     1
 0.0007907878     1    10    10     3
 0.0004177326     1    10    10     7
 0.0000000038     1    10    11     1
 -0.0381064008     1    10    11     2
 -0.0000000001     1    10    11     3
 -0.0005742482     1    10    11     4
 -0.0000000001     1    10    11     7
 -0.0001176383     1    10    11    11
 0.0015492791     1    11     2     1
 0.0000000001     1    11     2     2
 0.0000377927     1    11     2     3
 0.0001060833     1    11     2     7
 -0.0000200921     1    11     2    10
 0.0000000044     1    11     3     1
 -0.0437762843     1    11     3     2
 0.0000000001     1    11     3     3
 0.0004550966     1    11     3     4
 -0.0719469549     1    11     4     1
 0.0016133965     1    11     4     3
 0.0004460377     1    11     4     7
 0.0000645351     1    11     4    10
 0.0000000001     1    11     5     5
 0.0011414548     1    11     5     6
 0.0008994613     1    11     5     8
 0.0011467532     1    11     6     5
 0.0000000001     1    11     6     6
 -0.0007126221     1    11     6     9
 -0.0000000017     1    11     7     1
 0.0173973153     1    11     7     2
 0.0000000002     1    11     7     3
 -0.0003174229     1    11     7     4
 0.0000000002     1    11     7     7
 0.0009518765     1    11     8     5
 0.0000000002     1    11     8     8
 0.0024972028     1    11     8     9
 -0.0007033638     1    11     9     6
 0.0025012550     1    11     9     8
 0.0000000001     1    11     9     9
 0.0000000038     1    11    10     1
 -0.0381264929     1    11    10     2
 -0.0000000001     1    11    10     3
 -0.0005097131     1    11    10     4
 -0.0000000001     1    11    10     7
 -0.2134819099     1    11    11     1
 0.0004933585     1    11    11     3
 0.0004895059     1    11    11     7
 0.0001176383     1    11    11    10
 -0.3952084674     2     1     1     2
 -0.0000000002     2     1     1     3
 0.0051096189     2     1     1     4
 -0.0000000007     2     1     1     7
 0.0000000001     2     1     1    10
 0.0015492791     2     1     1    11
 -0.0045262514     2     1     3     2
 0.1477367078     2     1     3     4
 0.0438140770     2     1     3    11
 -0.0000000003     2     1     4     2
 0.1476138844     2     1     4     3
 -0.1317886459     2     1     4     7
 0.0523093112     2     1     4    10
 -0.0000000008     2     1     5     5
 -0.1454486520     2     1     5     6
 -0.0796262192     2     1     5     8
 0.0000000001     2     1     5     9
 -0.1454591554     2     1     6     5
 0.0000000008     2     1     6     6
 0.0000000002     2     1     6     8
 0.0704112407     2     1     6     9
 -0.0129791188     2     1     7     2
 -0.1314459747     2     1     7     4
 -0.0172912320     2     1     7    11
 -0.0798603060     2     1     8     5
 0.0000000002     2     1     8     6
 -0.1269849683     2     1     8     9
 0.0000000001     2     1     9     5
 0.0706220041     2     1     9     6
 -0.1269933280     2     1     9     8
 0.0025236510     2     1    10     2
 0.0522445182     2     1    10     4
 0.0381064008     2     1    10    11
 -0.0000000001     2     1    11     2
 0.0437762843     2     1    11     3
 -0.0173973153     2     1    11     7
 0.0381264929     2     1    11    10
 0.3952084674     2     2     1     1
 0.0045262514     2     2     1     3
 0.0000000003     2     2     1     4
 0.0129791188     2     2     1     7
 -0.0025236510     2     2     1    10
 0.0000000001     2     2     1    11
 0.0045262514     2     2     3     1
 0.6004934357     2     2     3     3
 0.0000000147     2     2     3     4
 0.1113660183     2     2     3     7
 0.0412434627     2     2     3    10
 0.0000000043     2     2     3    11
 0.0000000003     2     2     4     1
 0.0000000147     2     2     4     3
 0.4814247359     2     2     4     4
 -0.0000000131     2     2     4     7
 0.0000000051     2     2     4    10
 0.0719160900     2     2     4    11
 0.4781577653     2     2     5     5
 -0.0000000145     2     2     5     6
 -0.0000000079     2     2     5     8
 0.0332722083     2     2     5     9
 -0.0000000145     2     2     6     5
 0.4788301920     2     2     6     6
 -0.0362632755     2     2     6     8
 0.0000000069     2     2     6     9
 0.0129791188     2     2     7     1
 0.1113660183     2     2     7     3
 -0.0000000131     2     2     7     4
 0.5619992815     2     2     7     7
 -0.0567802725     2     2     7    10
 -0.0000000017     2     2     7    11
 -0.0000000079     2     2     8     5
 -0.0362632755     2     2     8     6
 0.4870400652     2     2     8     8
 -0.0000000126     2     2     8     9
 0.0332722083     2     2     9     5
 0.0000000069     2     2     9     6
 -0.0000000126     2     2     9     8
 0.4409928121     2     2     9     9
 -0.0025236510     2     2    10     1
 0.0412434627     2     2    10     3
 0.0000000051     2     2    10     4
 -0.0567802725     2     2    10     7
 0.2192101027     2     2    10    10
 0.0000000038     2     2    10    11
 0.0000000001     2     2    11     1
 0.0000000043     2     2    11     3
 0.0719160900     2     2    11     4
 -0.0000000017     2     2    11     7
 0.0000000038     2     2    11    10
 0.2134737779     2     2    11    11
 0.0000000002     2     3     1     1
 -0.0045262514     2     3     1     2
 0.0001228234     2     3     1     4
 0.0000377927     2     3     1    11
 -0.6004934357     2     3     3     2
 0.0040064253     2     3     3     4
 -0.0000000005     2     3     3     7
 0.0000000001     2     3     3    10
 0.0013376459     2     3     3    11
 -0.1476138844     2     3     4     1
 -0.0000000147     2     3     4     2
 -0.0000000003     2     3     4     4
 0.0110696431     2     3     4     7
 -0.0029081486     2     3     4    10
 -0.0000000001     2     3     4    11
 -0.0000000005     2     3     5     5
 0.0107789085     2     3     5     6
 0.0068088820     2     3     5     8
 -0.0000000001     2     3     5     9
 0.0106736461     2     3     6     5
 -0.0000000006     2     3     6     6
 0.0000000001     2     3     6     8
 -0.0059687151     2     3     6     9
 -0.1113660183     2     3     7     2
 0.0122869985     2     3     7     4
 -0.0000000009     2     3     7     7
 0.0000000003     2     3     7    10
 0.0035149711     2     3     7    11
 0.0042192486     2     3     8     5
 0.0000000001     2     3     8     6
 -0.0000000005     2     3     8     8
 0.0107501185     2     3     8     9
 -0.0000000001     2     3     9     5
 -0.0036413195     2     3     9     6
 0.0107587836     2     3     9     8
 -0.0000000004     2     3     9     9
 -0.0412434627     2     3    10     2
 -0.0021600708     2     3    10     4
 0.0000000002     2     3    10     7
 -0.0011391761     2     3    10    11
 -0.0437762843     2     3    11     1
 -0.0000000043     2     3    11     2
 0.0022601690     2     3    11     7
 -0.0011535659     2     3    11    10
 -0.0051096189     2     4     1     1
 -0.0000000003     2     4     1     2
 -0.0001228234     2     4     1     3
 -0.0003426712     2     4     1     7
 0.0000647930     2     4     1    10
 -0.1477367078     2     4     3     1
 -0.0000000147     2     4     3     2
 -0.0040064253     2     4     3     3
 -0.0012173554     2     4     3     7
 -0.0007480778     2     4     3    10
 -0.0000000001     2     4     3    11
 -0.4814247359     2     4     4     2
 0.0000000003     2     4     4     3
 0.0000000001     2     4     4     7
 -0.0002497305     2     4     4    11
 -0.0098456897     2     4     5     5
 0.0000000004     2     4     5     6
 0.0000000001     2     4     5     8
 -0.0011564677     2     4     5     9
 0.0000000004     2     4     6     5
 -0.0099209233     2     4     6     6
 0.0011695480     2     4     6     8
 -0.0000000001     2     4     6     9
 0.1314459747     2     4     7     1
 0.0000000131     2     4     7     2
 -0.0122869985     2     4     7     3
 -0.0162337990     2     4     7     7
 0.0017356402     2     4     7    10
 0.0000000002     2     4     8     5
 0.0008227758     2     4     8     6
 -0.0102590162     2     4     8     8
 0.0000000003     2     4     8     9
 -0.0008667175     2     4     9     5
 -0.0000000002     2     4     9     6
 0.0000000003     2     4     9     8
 -0.0082299986     2     4     9     9
 -0.0522445182     2     4    10     1
 -0.0000000051     2     4    10     2
 0.0021600708     2     4    10     3
 0.0031657314     2     4    10     7
 -0.0005375305     2     4    10    10
 -0.0719160900     2     4    11     2
 0.0000000001     2     4    11     7
 0.0000581094     2     4    11    11
 0.0000105034     2     5     1     6
 0.0002340868     2     5     1     8
 0.0001052624     2     5     3     6
 0.0025896334     2     5     3     8
 -0.0000000001     2     5     4     8
 -0.0002897502     2     5     4     9
 0.0000000008     2     5     5     1
 -0.4781577653     2     5     5     2
 0.0000000005     2     5     5     3
 0.0098456897     2     5     5     4
 -0.0000000002     2     5     5     7
 0.0000000001     2     5     5    10
 0.0024666017     2     5     5    11
 0.1454591554     2     5     6     1
 0.0000000145     2     5     6     2
 -0.0106736461     2     5     6     3
 -0.0000000004     2     5     6     4
 -0.0032424769     2     5     6     7
 -0.0004928244     2     5     6    10
 -0.0000000001     2     5     6    11
 -0.0000279905     2     5     7     6
 0.0018344054     2     5     7     8
 0.0000000001     2     5     7     9
 0.0798603060     2     5     8     1
 0.0000000079     2     5     8     2
 -0.0042192486     2     5     8     3
 -0.0000000002     2     5     8     4
 -0.0011027609     2     5     8     7
 -0.0004025545     2     5     8    10
 -0.0000000001     2     5     9     1
 -0.0332722083     2     5     9     2
 0.0000000001     2     5     9     3
 0.0008667175     2     5     9     4
 0.0008007669     2     5     9    11
 0.0000015173     2     5    10     6
 -0.0003649926     2     5    10     8
 -0.0001131198     2     5    11     9
 -0.0000105034     2     6     1     5
 -0.0002107634     2     6     1     9
 -0.0001052624     2     6     3     5
 -0.0023273956     2     6     3     9
 0.0003467722     2     6     4     8
 0.0000000001     2     6     4     9
 0.1454486520     2     6     5     1
 0.0000000145     2     6     5     2
 -0.0107789085     2     6     5     3
 -0.0000000004     2     6     5     4
 -0.0032144864     2     6     5     7
 -0.0004943417     2     6     5    10
 -0.0000000001     2     6     5    11
 -0.0000000008     2     6     6     1
 -0.4788301920     2     6     6     2
 0.0000000006     2     6     6     3
 0.0099209233     2     6     6     4
 -0.0000000001     2     6     6     7
 0.0000000001     2     6     6    10
 0.0024613558     2     6     6    11
 0.0000279905     2     6     7     5
 -0.0017499964     2     6     7     9
 -0.0000000002     2     6     8     1
 0.0362632755     2     6     8     2
 -0.0000000001     2     6     8     3
 -0.0008227758     2     6     8     4
 0.0000000001     2     6     8     7
 -0.0007755089     2     6     8    11
 -0.0706220041     2     6     9     1
 -0.0000000069     2     6     9     2
 0.0036413195     2     6     9     3
 0.0000000002     2     6     9     4
 0.0009867633     2     6     9     7
 0.0002836299     2     6     9    10
 -0.0000015173     2     6    10     5
 0.0003395599     2     6    10     9
 0.0001874278     2     6    11     8
 0.0000000007     2     7     1     1
 -0.0129791188     2     7     1     2
 0.0003426712     2     7     1     4
 0.0001060833     2     7     1    11
 -0.1113660183     2     7     3     2
 0.0000000005     2     7     3     3
 0.0012173554     2     7     3     4
 0.0000000001     2     7     3    10
 0.0012548021     2     7     3    11
 0.1317886459     2     7     4     1
 0.0000000131     2     7     4     2
 -0.0110696431     2     7     4     3
 -0.0000000001     2     7     4     4
 -0.0014300912     2     7     4    10
 -0.0000000001     2     7     4    11
 0.0000000002     2     7     5     5
 0.0032144864     2     7     5     6
 0.0029371663     2     7     5     8
 0.0000000001     2     7     5     9
 0.0032424769     2     7     6     5
 0.0000000001     2     7     6     6
 -0.0000000001     2     7     6     8
 -0.0027367597     2     7     6     9
 -0.5619992815     2     7     7     2
 0.0000000009     2     7     7     3
 0.0162337990     2     7     7     4
 0.0000000002     2     7     7    10
 0.0042070530     2     7     7    11
 0.0011027609     2     7     8     5
 -0.0000000001     2     7     8     6
 0.0000000001     2     7     8     8
 0.0032509428     2     7     8     9
 -0.0009867633     2     7     9     6
 0.0029317820     2     7     9     8
 0.0000000001     2     7     9     9
 0.0567802725     2     7    10     2
 -0.0000000002     2     7    10     3
 -0.0031657314     2     7    10     4
 -0.0023113925     2     7    10    11
 0.0173973153     2     7    11     1
 0.0000000017     2     7    11     2
 -0.0022601690     2     7    11     3
 -0.0000000001     2     7    11     4
 -0.0019402907     2     7    11    10
 -0.0002340868     2     8     1     5
 0.0000083597     2     8     1     9
 -0.0025896334     2     8     3     5
 -0.0000086651     2     8     3     9
 0.0000000001     2     8     4     5
 -0.0003467722     2     8     4     6
 0.0796262192     2     8     5     1
 0.0000000079     2     8     5     2
 -0.0068088820     2     8     5     3
 -0.0000000001     2     8     5     4
 -0.0029371663     2     8     5     7
 -0.0000375619     2     8     5    10
 -0.0000000002     2     8     6     1
 0.0362632755     2     8     6     2
 -0.0000000001     2     8     6     3
 -0.0011695480     2     8     6     4
 0.0000000001     2     8     6     7
 -0.0009629367     2     8     6    11
 -0.0018344054     2     8     7     5
 0.0003191608     2     8     7     9
 -0.4870400652     2     8     8     2
 0.0000000005     2     8     8     3
 0.0102590162     2     8     8     4
 -0.0000000001     2     8     8     7
 0.0000000002     2     8     8    10
 0.0036435089     2     8     8    11
 0.1269933280     2     8     9     1
 0.0000000126     2     8     9     2
 -0.0107587836     2     8     9     3
 -0.0000000003     2     8     9     4
 -0.0029317820     2     8     9     7
 -0.0010999952     2     8     9    10
 -0.0000000001     2     8     9    11
 0.0003649926     2     8    10     5