&FCI NORB=  7,NELEC=  6,MS2=0,
 ORBSYM=1,1,1,1,1,1,1
 ISYM=1,
&END
 0.1366341415     1     1     2     2
 0.0151507880     1     1     2     4
 0.0089149663     1     1     2     6
 0.1746773622     1     1     3     3
 0.0313877174     1     1     3     5
 -0.0016900149     1     1     3     7
 0.0151507880     1     1     4     2
 0.1941253287     1     1     4     4
 -0.0395387710     1     1     4     6
 0.0313877174     1     1     5     3
 0.1890923703     1     1     5     5
 -0.0109584183     1     1     5     7
 0.0089149663     1     1     6     2
 -0.0395387710     1     1     6     4
 0.2161385386     1     1     6     6
 -0.0016900149     1     1     7     3
 -0.0109584183     1     1     7     5
 0.1874406881     1     1     7     7
 -0.1366341415     1     2     2     1
 0.0490037952     1     2     2     3
 0.0003001010     1     2     2     5
 -0.0019610626     1     2     2     7
 -0.0449498332     1     2     3     4
 0.0215779960     1     2     3     6
 -0.0151507880     1     2     4     1
 -0.0123940195     1     2     4     3
 0.0519518256     1     2     4     5
 -0.0071859746     1     2     4     7
 0.0379946680     1     2     5     4
 0.0565324850     1     2     5     6
 -0.0089149663     1     2     6     1
 0.0157633097     1     2     6     3
 0.0461993525     1     2     6     5
 0.0063541380     1     2     6     7
 -0.0056230114     1     2     7     4
 0.0058396656     1     2     7     6
 -0.0490037952     1     3     2     2
 -0.0326670074     1     3     2     4
 0.0059368915     1     3     2     6
 -0.1746773622     1     3     3     1
 -0.0316090051     1     3     3     5
 -0.0035993558     1     3     3     7
 0.0123940195     1     3     4     2
 -0.0104574372     1     3     4     4
 0.0367442432     1     3     4     6
 -0.0313877174     1     3     5     1
 -0.0009153002     1     3     5     5
 -0.0000569862     1     3     5     7
 -0.0157633097     1     3     6     2
 0.0170960696     1     3     6     4
 -0.0225067578     1     3     6     6
 0.0016900149     1     3     7     1
 0.0014943512     1     3     7     5
 -0.0162902363     1     3     7     7
 -0.0151507880     1     4     2     1
 0.0326670074     1     4     2     3
 0.0144780638     1     4     2     5
 -0.0016508182     1     4     2     7
 0.0449498332     1     4     3     2
 0.0220274207     1     4     3     6
 -0.1941253287     1     4     4     1
 0.0104574372     1     4     4     3
 0.0017568629     1     4     4     5
 -0.0143329846     1     4     4     7
 -0.0379946680     1     4     5     2
 0.0114588321     1     4     5     6
 0.0395387710     1     4     6     1
 -0.0170960696     1     4     6     3
 0.0099244012     1     4     6     5
 0.0025254005     1     4     6     7
 0.0056230114     1     4     7     2
 -0.0007469674     1     4     7     6
 -0.0003001010     1     5     2     2
 -0.0144780638     1     5     2     4
 0.0121655259     1     5     2     6
 -0.0313877174     1     5     3     1
 0.0316090051     1     5     3     3
 -0.0013847621     1     5     3     7
 -0.0519518256     1     5     4     2
 -0.0017568629     1     5     4     4
 0.0014304570     1     5     4     6
 -0.1890923703     1     5     5     1
 0.0009153002     1     5     5     3
 -0.0140038634     1     5     5     7
 -0.0461993525     1     5     6     2
 -0.0099244012     1     5     6     4
 0.0061481872     1     5     6     6
 0.0109584183     1     5     7     1
 -0.0014943512     1     5     7     3
 0.0056867189     1     5     7     7
 -0.0089149663     1     6     2     1
 -0.0059368915     1     6     2     3
 -0.0121655259     1     6     2     5
 0.0010696337     1     6     2     7
 -0.0215779960     1     6     3     2
 -0.0220274207     1     6     3     4
 0.0395387710     1     6     4     1
 -0.0367442432     1     6     4     3
 -0.0014304570     1     6     4     5
 0.0030758300     1     6     4     7
 -0.0565324850     1     6     5     2
 -0.0114588321     1     6     5     4
 -0.2161385386     1     6     6     1
 0.0225067578     1     6     6     3
 -0.0061481872     1     6     6     5
 -0.0154816469     1     6     6     7
 -0.0058396656     1     6     7     2
 0.0007469674     1     6     7     4
 0.0019610626     1     7     2     2
 0.0016508182     1     7     2     4
 -0.0010696337     1     7     2     6
 0.0016900149     1     7     3     1
 0.0035993558     1     7     3     3
 0.0013847621     1     7     3     5
 0.0071859746     1     7     4     2
 0.0143329846     1     7     4     4
 -0.0030758300     1     7     4     6
 0.0109584183     1     7     5     1
 0.0000569862     1     7     5     3
 0.0140038634     1     7     5     5
 -0.0063541380     1     7     6     2
 -0.0025254005     1     7     6     4
 0.0154816469     1     7     6     6
 -0.1874406881     1     7     7     1
 0.0162902363     1     7     7     3
 -0.0056867189     1     7     7     5
 -0.1366341415     2     1     1     2
 -0.0151507880     2     1     1     4
 -0.0089149663     2     1     1     6
 0.0490037952     2     1     3     2
 -0.0123940195     2     1     3     4
 0.0157633097     2     1     3     6
 -0.0449498332     2     1     4     3
 0.0379946680     2     1     4     5
 -0.0056230114     2     1     4     7
 0.0003001010     2     1     5     2
 0.0519518256     2     1     5     4
 0.0461993525     2     1     5     6
 0.0215779960     2     1     6     3
 0.0565324850     2     1     6     5
 0.0058396656     2     1     6     7
 -0.0019610626     2     1     7     2
 -0.0071859746     2     1     7     4
 0.0063541380     2     1     7     6
 0.1366341415     2     2     1     1
 -0.0490037952     2     2     1     3
 -0.0003001010     2     2     1     5
 0.0019610626     2     2     1     7
 -0.0490037952     2     2     3     1
 0.1421924845     2     2     3     3
 0.0072738340     2     2     3     5
 -0.0042906543     2     2     3     7
 0.1766019735     2     2     4     4
 -0.0067342854     2     2     4     6
 -0.0003001010     2     2     5     1
 0.0072738340     2     2     5     3
 0.1854569662     2     2     5     5
 -0.0085199077     2     2     5     7
 -0.0067342854     2     2     6     4
 0.1878563337     2     2     6     6
 0.0019610626     2     2     7     1
 -0.0042906543     2     2     7     3
 -0.0085199077     2     2     7     5
 0.1701194560     2     2     7     7
 0.0490037952     2     3     1     2
 0.0326670074     2     3     1     4
 -0.0059368915     2     3     1     6
 -0.1421924845     2     3     3     2
 -0.0559932313     2     3     3     4
 0.0044819520     2     3     3     6
 0.0449498332     2     3     4     1
 0.0576709473     2     3     4     5
 0.0007765340     2     3     4     7
 -0.0072738340     2     3     5     2
 0.0323096833     2     3     5     4
 0.0512870834     2     3     5     6
 -0.0215779960     2     3     6     1
 0.0340764879     2     3     6     5
 0.0065228535     2     3     6     7
 0.0042906543     2     3     7     2
 0.0009418624     2     3     7     4
 0.0061946680     2     3     7     6
 0.0151507880     2     4     1     1
 -0.0326670074     2     4     1     3
 -0.0144780638     2     4     1     5
 0.0016508182     2     4     1     7
 0.0123940195     2     4     3     1
 0.0559932313     2     4     3     3
 0.0281214961     2     4     3     5
 -0.0007885252     2     4     3     7
 -0.1766019735     2     4     4     2
 -0.0361547496     2     4     4     6
 -0.0519518256     2     4     5     1
 -0.0323096833     2     4     5     3
 0.0039250175     2     4     5     5
 -0.0141030483     2     4     5     7
 0.0067342854     2     4     6     2
 0.0199093995     2     4     6     6
 0.0071859746     2     4     7     1
 -0.0009418624     2     4     7     3
 -0.0037400351     2     4     7     5
 0.0180370524     2     4     7     7
 0.0003001010     2     5     1     2
 0.0144780638     2     5     1     4
 -0.0121655259     2     5     1     6
 -0.0072738340     2     5     3     2
 -0.0281214961     2     5     3     4
 0.0178412959     2     5     3     6
 -0.0379946680     2     5     4     1
 -0.0576709473     2     5     4     3
 -0.0103592923     2     5     4     7
 -0.1854569662     2     5     5     2
 -0.0039250175     2     5     5     4
 -0.0069813178     2     5     5     6
 -0.0565324850     2     5     6     1
 -0.0340764879     2     5     6     3
 -0.0131917754     2     5     6     7
 0.0085199077     2     5     7     2
 0.0037400351     2     5     7     4
 -0.0029755053     2     5     7     6
 0.0089149663     2     6     1     1
 0.0059368915     2     6     1     3
 0.0121655259     2     6     1     5
 -0.0010696337     2     6     1     7
 -0.0157633097     2     6     3     1
 -0.0044819520     2     6     3     3
 -0.0178412959     2     6     3     5
 0.0006297830     2     6     3     7
 0.0067342854     2     6     4     2
 0.0361547496     2     6     4     4
 -0.0461993525     2     6     5     1
 -0.0512870834     2     6     5     3
 0.0069813178     2     6     5     5
 -0.0102846062     2     6     5     7
 -0.1878563337     2     6     6     2
 -0.0199093995     2     6     6     4
 -0.0063541380     2     6     7     1
 -0.0061946680     2     6     7     3
 0.0029755053     2     6     7     5
 0.0037308633     2     6     7     7
 -0.0019610626     2     7     1     2
 -0.0016508182     2     7     1     4
 0.0010696337     2     7     1     6
 0.0042906543     2     7     3     2
 0.0007885252     2     7     3     4
 -0.0006297830     2     7     3     6
 0.0056230114     2     7     4     1
 -0.0007765340     2     7     4     3
 0.0103592923     2     7     4     5
 0.0085199077     2     7     5     2
 0.0141030483     2     7     5     4
 0.0102846062     2     7     5     6
 -0.0058396656     2     7     6     1
 -0.0065228535     2     7     6     3
 0.0131917754     2     7     6     5
 -0.1701194560     2     7     7     2
 -0.0180370524     2     7     7     4
 -0.0037308633     2     7     7     6
 -0.1746773622     3     1     1     3
 -0.0313877174     3     1     1     5
 0.0016900149     3     1     1     7
 -0.0490037952     3     1     2     2
 0.0123940195     3     1     2     4
 -0.0157633097     3     1     2     6
 -0.0326670074     3     1     4     2
 -0.0104574372     3     1     4     4
 0.0170960696     3     1     4     6
 -0.0316090051     3     1     5     3
 -0.0009153002     3     1     5     5
 0.0014943512     3     1     5     7
 0.0059368915     3     1     6     2
 0.0367442432     3     1     6     4
 -0.0225067578     3     1     6     6
 -0.0035993558     3     1     7     3
 -0.0000569862     3     1     7     5
 -0.0162902363     3     1     7     7
 0.0449498332     3     2     1     4
 -0.0215779960     3     2     1     6
 0.0490037952     3     2     2     1
 -0.1421924845     3     2     2     3
 -0.0072738340     3     2     2     5
 0.0042906543     3     2     2     7
 0.0326670074     3     2     4     1
 -0.0559932313     3     2     4     3
 0.0323096833     3     2     4     5
 0.0009418624     3     2     4     7
 0.0576709473     3     2     5     4
 0.0340764879     3     2     5     6
 -0.0059368915     3     2     6     1
 0.0044819520     3     2     6     3
 0.0512870834     3     2     6     5
 0.0061946680     3     2     6     7
 0.0007765340     3     2     7     4
 0.0065228535     3     2     7     6
 0.1746773622     3     3     1     1
 0.0316090051     3     3     1     5
 0.0035993558     3     3     1     7
 0.1421924845     3     3     2     2
 0.0559932313     3     3     2     4
 -0.0044819520     3     3     2     6
 0.0559932313     3     3     4     2
 0.1810099208     3     3     4     4
 -0.0161290937     3     3     4     6
 0.0316090051     3     3     5     1
 0.1749684018     3     3     5     5
 -0.0025446943     3     3     5     7
 -0.0044819520     3     3     6     2
 -0.0161290937     3     3     6     4
 0.1878848420     3     3     6     6
 0.0035993558     3     3     7     1
 -0.0025446943     3     3     7     5
 0.1753229258     3     3     7     7
 -0.0449498332     3     4     1     2
 -0.0220274207     3     4     1     6
 -0.0123940195     3     4     2     1
 -0.0559932313     3     4     2     3
 -0.0281214961     3     4     2     5
 0.0007885252     3     4     2     7
 0.0104574372     3     4     4     1
 -0.1810099208     3     4     4     3
 -0.0605407187     3     4     4     5
 0.0025882554     3     4     4     7
 -0.0576709473     3     4     5     2
 -0.0503745210     3     4     5     6
 -0.0367442432     3     4     6     1
 0.0161290937     3     4     6     3
 -0.0085076155     3     4     6     5
 -0.0171795471     3     4     6     7
 -0.0007765340     3     4     7     2
 -0.0071944287     3     4     7     6
 0.0313877174     3     5     1     1
 -0.0316090051     3     5     1     3
 0.0013847621     3     5     1     7
 0.0072738340     3     5     2     2
 0.0281214961     3     5     2     4
 -0.0178412959     3     5     2     6
 -0.0323096833     3     5     4     2
 0.0605407187     3     5     4     4
 -0.0419027690     3     5     4     6
 0.0009153002     3     5     5     1
 -0.1749684018     3     5     5     3
 -0.0088734540     3     5     5     7
 -0.0512870834     3     5     6     2
 0.0085076155     3     5     6     4
 0.0106967535     3     5     6     6
 0.0000569862     3     5     7     1
 0.0025446943     3     5     7     3
 0.0173921287     3     5     7     7
 0.0215779960     3     6     1     2
 0.0220274207     3     6     1     4
 0.0157633097     3     6     2     1
 0.0044819520     3     6     2     3
 0.0178412959     3     6     2     5
 -0.0006297830     3     6     2     7
 -0.0170960696     3     6     4     1
 0.0161290937     3     6     4     3
 0.0419027690     3     6     4     5
 -0.0099543851     3     6     4     7
 -0.0340764879     3     6     5     2
 0.0503745210     3     6     5     4
 0.0225067578     3     6     6     1
 -0.1878848420     3     6     6     3
 -0.0106967535     3     6     6     5
 0.0013673923     3     6     6     7
 -0.0065228535     3     6     7     2
 0.0071944287     3     6     7     4
 -0.0016900149     3     7     1     1
 -0.0035993558     3     7     1     3
 -0.0013847621     3     7     1     5
 -0.0042906543     3     7     2     2
 -0.0007885252     3     7     2     4
 0.0006297830     3     7     2     6
 -0.0009418624     3     7     4     2
 -0.0025882554     3     7     4     4
 0.0099543851     3     7     4     6
 -0.0014943512     3     7     5     1
 0.0025446943     3     7     5     3
 0.0088734540     3     7     5     5
 -0.0061946680     3     7     6     2
 0.0171795471     3     7     6     4
 -0.0013673923     3     7     6     6
 0.0162902363     3     7     7     1
 -0.1753229258     3     7     7     3
 -0.0173921287     3     7     7     5
 -0.0151507880     4     1     1     2
 -0.1941253287     4     1     1     4
 0.0395387710     4     1     1     6
 0.0449498332     4     1     2     3
 -0.0379946680     4     1     2     5
 0.0056230114     4     1     2     7
 0.0326670074     4     1     3     2
 0.0104574372     4     1     3     4
 -0.0170960696     4     1     3     6
 0.0144780638     4     1     5     2
 0.0017568629     4     1     5     4
 0.0099244012     4     1     5     6
 0.0220274207     4     1     6     3
 0.0114588321     4     1     6     5
 -0.0007469674     4     1     6     7
 -0.0016508182     4     1     7     2
 -0.0143329846     4     1     7     4
 0.0025254005     4     1     7     6
 0.0151507880     4     2     1     1
 0.0123940195     4     2     1     3
 -0.0519518256     4     2     1     5
 0.0071859746     4     2     1     7
 -0.1766019735     4     2     2     4
 0.0067342854     4     2     2     6
 -0.0326670074     4     2     3     1
 0.0559932313     4     2     3     3
 -0.0323096833     4     2     3     5
 -0.0009418624     4     2     3     7
 -0.0144780638     4     2     5     1
 0.0281214961     4     2     5     3
 0.0039250175     4     2     5     5
 -0.0037400351     4     2     5     7
 -0.0361547496     4     2     6     4
 0.0199093995     4     2     6     6
 0.0016508182     4     2     7     1
 -0.0007885252     4     2     7     3
 -0.0141030483     4     2     7     5
 0.0180370524     4     2     7     7
 -0.0123940195     4     3     1     2
 0.0104574372     4     3     1     4
 -0.0367442432     4     3     1     6
 -0.0449498332     4     3     2     1
 -0.0576709473     4     3     2     5
 -0.0007765340     4     3     2     7
 -0.0559932313     4     3     3     2
 -0.1810099208     4     3     3     4
 0.0161290937     4     3     3     6
 -0.0281214961     4     3     5     2
 -0.0605407187     4     3     5     4
 -0.0085076155     4     3     5     6
 -0.0220274207     4     3     6     1
 -0.0503745210     4     3     6     5
 -0.0071944287     4     3     6     7
 0.0007885252     4     3     7     2
 0.0025882554     4     3     7     4
 -0.0171795471     4     3     7     6
 0.1941253287     4     4     1     1
 -0.0104574372     4     4     1     3
 -0.0017568629     4     4     1     5
 0.0143329846     4     4     1     7
 0.1766019735     4     4     2     2
 0.0361547496     4     4     2     6
 -0.0104574372     4     4     3     1
 0.1810099208     4     4     3     3
 0.0605407187     4     4     3     5
 -0.0025882554     4     4     3     7
 -0.0017568629     4     4     5     1
 0.0605407187     4     4     5     3
 0.1419552334     4     4     5     5
 -0.0039581214     4     4     5     7
 0.0361547496     4     4     6     2
 0.1707753987     4     4     6     6
 0.0143329846     4     4     7     1
 -0.0025882554     4     4     7     3
 -0.0039581214     4     4     7     5
 0.1751433389     4     4     7     7
 0.0519518256     4     5     1     2
 0.0017568629     4     5     1     4
 -0.0014304570     4     5     1     6
 0.0379946680     4     5     2     1
 0.0576709473     4     5     2     3
 0.0103592923     4     5     2     7
 0.0323096833     4     5     3     2
 -0.0605407187     4     5     3     4
 0.0419027690     4     5     3     6
 -0.0039250175     4     5     5     2
 -0.1419552334     4     5     5     4
 0.0585353207     4     5     5     6
 -0.0114588321     4     5     6     1
 0.0503745210     4     5     6     3
 0.0126374097     4     5     6     7
 0.0141030483     4     5     7     2
 0.0039581214     4     5     7     4
 0.0048258879     4     5     7     6
 -0.0395387710     4     6     1     1
 0.0367442432     4     6     1     3
 0.0014304570     4     6     1     5
 -0.0030758300     4     6     1     7
 -0.0067342854     4     6     2     2
 -0.0361547496     4     6     2     4
 0.0170960696     4     6     3     1
 -0.0161290937     4     6     3     3
 -0.0419027690     4     6     3     5
 0.0099543851     4     6     3     7
 -0.0099244012     4     6     5     1
 0.0085076155     4     6     5     3
 -0.0585353207     4     6     5     5
 0.0078128740     4     6     5     7
 -0.0199093995     4     6     6     2
 -0.1707753987     4     6     6     4
 -0.0025254005     4     6     7     1
 0.0171795471     4     6     7     3
 -0.0048258879     4     6     7     5
 -0.0203225719     4     6     7     7
 -0.0071859746     4     7     1     2
 -0.0143329846     4     7     1     4
 0.0030758300     4     7     1     6
 -0.0056230114     4     7     2     1
 0.0007765340     4     7     2     3
 -0.0103592923     4     7     2     5
 0.0009418624     4     7     3     2
 0.0025882554     4     7     3     4
 -0.0099543851     4     7     3     6
 0.0037400351     4     7     5     2
 0.0039581214     4     7     5     4
 -0.0078128740     4     7     5     6
 0.0007469674     4     7     6     1
 0.0071944287     4     7     6     3
 -0.0126374097     4     7     6     5
 -0.0180370524     4     7     7     2
 -0.1751433389     4     7     7     4
 0.0203225719     4     7     7     6
 -0.0313877174     5     1     1     3
 -0.1890923703     5     1     1     5
 0.0109584183     5     1     1     7
 -0.0003001010     5     1     2     2
 -0.0519518256     5     1     2     4
 -0.0461993525     5     1     2     6
 0.0316090051     5     1     3     3
 0.0009153002     5     1     3     5
 -0.0014943512     5     1     3     7
 -0.0144780638     5     1     4     2
 -0.0017568629     5     1     4     4
 -0.0099244012     5     1     4     6
 0.0121655259     5     1     6     2
 0.0014304570     5     1     6     4
 0.0061481872     5     1     6     6
 -0.0013847621     5     1     7     3
 -0.0140038634     5     1     7     5
 0.0056867189     5     1     7     7
 -0.0379946680     5     2     1     4
 -0.0565324850     5     2     1     6
 0.0003001010     5     2     2     1
 -0.0072738340     5     2     2     3
 -0.1854569662     5     2     2     5
 0.0085199077     5     2     2     7
 -0.0576709473     5     2     3     4
 -0.0340764879     5     2     3     6
 0.0144780638     5     2     4     1
 -0.0281214961     5     2     4     3
 -0.0039250175     5     2     4     5
 0.0037400351     5     2     4     7
 -0.0121655259     5     2     6     1
 0.0178412959     5     2     6     3
 -0.0069813178     5     2     6     5
 -0.0029755053     5     2     6     7
 -0.0103592923     5     2     7     4
 -0.0131917754     5     2     7     6
 0.0313877174     5     3     1     1
 0.0009153002     5     3     1     5
 0.0000569862     5     3     1     7
 0.0072738340     5     3     2     2
 -0.0323096833     5     3     2     4
 -0.0512870834     5     3     2     6
 -0.0316090051     5     3     3     1
 -0.1749684018     5     3     3     5
 0.0025446943     5     3     3     7
 0.0281214961     5     3     4     2
 0.0605407187     5     3     4     4
 0.0085076155     5     3     4     6
 -0.0178412959     5     3     6     2
 -0.0419027690     5     3     6     4
 0.0106967535     5     3     6     6
 0.0013847621     5     3     7     1
 -0.0088734540     5     3     7     5
 0.0173921287     5     3     7     7
 0.0379946680     5     4     1     2
 -0.0114588321     5     4     1     6
 0.0519518256     5     4     2     1
 0.0323096833     5     4     2     3
 -0.0039250175     5     4     2     5
 0.0141030483     5     4     2     7
 0.0576709473     5     4     3     2
 0.0503745210     5     4     3     6
 0.0017568629     5     4     4     1
 -0.0605407187     5     4     4     3
 -0.1419552334     5     4     4     5
 0.0039581214     5     4     4     7
 -0.0014304570     5     4     6     1
 0.0419027690     5     4     6     3
 0.0585353207     5     4     6     5
 0.0048258879     5     4     6     7
 0.0103592923     5     4     7     2
 0.0126374097     5     4     7     6
 0.1890923703     5     5     1     1
 -0.0009153002     5     5     1     3
 0.0140038634     5     5     1     7
 0.1854569662     5     5     2     2
 0.0039250175     5     5     2     4
 0.0069813178     5     5     2     6
 -0.0009153002     5     5     3     1
 0.1749684018     5     5     3     3
 0.0088734540     5     5     3     7
 0.0039250175     5     5     4     2
 0.1419552334     5     5     4     4
 -0.0585353207     5     5     4     6
 0.0069813178     5     5     6     2
 -0.0585353207     5     5     6     4
 0.1439373769     5     5     6     6
 0.0140038634     5     5     7     1
 0.0088734540     5     5     7     3
 0.1652431041     5     5     7     7
 0.0565324850     5     6     1     2
 0.0114588321     5     6     1     4
 0.0461993525     5     6     2     1
 0.0512870834     5     6     2     3
 -0.0069813178     5     6     2     5
 0.0102846062     5     6     2     7
 0.0340764879     5     6     3     2
 -0.0503745210     5     6     3     4
 0.0099244012     5     6     4     1
 -0.0085076155     5     6     4     3
 0.0585353207     5     6     4     5
 -0.0078128740     5     6     4     7
 -0.0061481872     5     6     6     1
 -0.0106967535     5     6     6     3
 -0.1439373769     5     6     6     5
 0.0165910761     5     6     6     7
 0.0131917754     5     6     7     2
 -0.0126374097     5     6     7     4
 -0.0109584183     5     7     1     1
 -0.0000569862     5     7     1     3
 -0.0140038634     5     7     1     5
 -0.0085199077     5     7     2     2
 -0.0141030483     5     7     2     4
 -0.0102846062     5     7     2     6
 0.0014943512     5     7     3     1
 -0.0025446943     5     7     3     3
 -0.0088734540     5     7     3     5
 -0.0037400351     5     7     4     2
 -0.0039581214     5     7     4     4
 0.0078128740     5     7     4     6
 0.0029755053     5     7     6     2
 -0.0048258879     5     7     6     4
 -0.0165910761     5     7     6     6
 -0.0056867189     5     7     7     1
 -0.0173921287     5     7     7     3
 -0.1652431041     5     7     7     5
 -0.0089149663     6     1     1     2
 0.0395387710     6     1     1     4
 -0.2161385386     6     1     1     6
 -0.0215779960     6     1     2     3
 -0.0565324850     6     1     2     5
 -0.0058396656     6     1     2     7
 -0.0059368915     6     1     3     2
 -0.0367442432     6     1     3     4
 0.0225067578     6     1     3     6
 -0.0220274207     6     1     4     3
 -0.0114588321     6     1     4     5
 0.0007469674     6     1     4     7
 -0.0121655259     6     1     5     2
 -0.0014304570     6     1     5     4
 -0.0061481872     6     1     5     6
 0.0010696337     6     1     7     2
 0.0030758300     6     1     7     4
 -0.0154816469     6     1     7     6
 0.0089149663     6     2     1     1
 -0.0157633097     6     2     1     3
 -0.0461993525     6     2     1     5
 -0.0063541380     6     2     1     7
 0.0067342854     6     2     2     4
 -0.1878563337     6     2     2     6
 0.0059368915     6     2     3     1
 -0.0044819520     6     2     3     3
 -0.0512870834     6     2     3     5
 -0.0061946680     6     2     3     7
 0.0361547496     6     2     4     4
 -0.0199093995     6     2     4     6
 0.0121655259     6     2     5     1
 -0.0178412959     6     2     5     3
 0.0069813178     6     2     5     5
 0.0029755053     6     2     5     7
 -0.0010696337     6     2     7     1
 0.0006297830     6     2     7     3
 -0.0102846062     6     2     7     5
 0.0037308633     6     2     7     7
 0.0157633097     6     3     1     2
 -0.0170960696     6     3     1     4
 0.0225067578     6     3     1     6
 0.0215779960     6     3     2     1
 -0.0340764879     6     3     2     5
 -0.0065228535     6     3     2     7
 0.0044819520     6     3     3     2
 0.0161290937     6     3     3     4
 -0.1878848420     6     3     3     6
 0.0220274207     6     3     4     1
 0.0503745210     6     3     4     5
 0.0071944287     6     3     4     7
 0.0178412959     6     3     5     2
 0.0419027690     6     3     5     4
 -0.0106967535     6     3     5     6
 -0.0006297830     6     3     7     2
 -0.0099543851     6     3     7     4
 0.0013673923     6     3     7     6
 -0.0395387710     6     4     1     1
 0.0170960696     6     4     1     3
 -0.0099244012     6     4     1     5
 -0.0025254005     6     4     1     7
 -0.0067342854     6     4     2     2
 -0.0199093995     6     4     2     6
 0.0367442432     6     4     3     1
 -0.0161290937     6     4     3     3
 0.0085076155     6     4     3     5
 0.0171795471     6     4     3     7
 -0.0361547496     6     4     4     2
 -0.1707753987     6     4     4     6
 0.0014304570     6     4     5     1
 -0.0419027690     6     4     5     3
 -0.0585353207     6     4     5     5
 -0.0048258879     6     4     5     7
 -0.0030758300     6     4     7     1
 0.0099543851     6     4     7     3
 0.0078128740     6     4     7     5
 -0.0203225719     6     4     7     7
 0.0461993525     6     5     1     2
 0.0099244012     6     5     1     4
 -0.0061481872     6     5     1     6
 0.0565324850     6     5     2     1
 0.0340764879     6     5     2     3
 0.0131917754     6     5     2     7
 0.0512870834     6     5     3     2
 -0.0085076155     6     5     3     4
 -0.0106967535     6     5     3     6
 0.0114588321     6     5     4     1
 -0.0503745210     6     5     4     3
 -0.0126374097     6     5     4     7
 -0.0069813178     6     5     5     2
 0.0585353207     6     5     5     4
 -0.1439373769     6     5     5     6
 0.0102846062     6     5     7     2
 -0.0078128740     6     5     7     4
 0.0165910761     6     5     7     6
 0.2161385386     6     6     1     1
 -0.0225067578     6     6     1     3
 0.0061481872     6     6     1     5
 0.0154816469     6     6     1     7
 0.1878563337     6     6     2     2
 0.0199093995     6     6     2     4
 -0.0225067578     6     6     3     1
 0.1878848420     6     6     3     3
 0.0106967535     6     6     3     5
 -0.0013673923     6     6     3     7
 0.0199093995     6     6     4     2
 0.1707753987     6     6     4     4
 0.0061481872     6     6     5     1
 0.0106967535     6     6     5     3
 0.1439373769     6     6     5     5
 -0.0165910761     6     6     5     7
 0.0154816469     6     6     7     1
 -0.0013673923     6     6     7     3
 -0.0165910761     6     6     7     5
 0.1724221880     6     6     7     7
 0.0063541380     6     7     1     2
 0.0025254005     6     7     1     4
 -0.0154816469     6     7     1     6
 0.0058396656     6     7     2     1
 0.0065228535     6     7     2     3
 -0.0131917754     6     7     2     5
 0.0061946680     6     7     3     2
 -0.0171795471     6     7     3     4
 0.0013673923     6     7     3     6
 -0.0007469674     6     7     4     1
 -0.0071944287     6     7     4     3
 0.0126374097     6     7     4     5
 -0.0029755053     6     7     5     2
 0.0048258879     6     7     5     4
 0.0165910761     6     7     5     6
 -0.0037308633     6     7     7     2
 0.0203225719     6     7     7     4
 -0.1724221880     6     7     7     6
 0.0016900149     7     1     1     3
 0.0109584183     7     1     1     5
 -0.1874406881     7     1     1     7