&FCI NORB= 16,NELEC= 10,MS2=0,
 ORBSYM=1,1,1,1,1,1,1,1,1,1,1,1,1,1,1,1
 ISYM=1,
&END
 1.0054870333     1     1     2     2
 -0.0612891374     1     1     2     3
 -0.0447498500     1     1     2     5
 -0.0628024099     1     1     2     6
 0.1067925810     1     1     2     7
 0.0081362386     1     1     2     8
 0.0625134438     1     1     2     9
 0.0426026040     1     1     2    11
 0.0604897975     1     1     2    12
 0.0454608777     1     1     2    14
 -0.1249278826     1     1     2    15
 -0.0612891374     1     1     3     2
 0.9167453933     1     1     3     3
 0.0594980835     1     1     3     5
 0.0510682471     1     1     3     6
 0.1114017205     1     1     3     7
 0.0009057669     1     1     3     8
 -0.0146920807     1     1     3     9
 0.2430771226     1     1     3    11
 -0.0566909218     1     1     3    12
 0.0161948621     1     1     3    14
 -0.0074105045     1     1     3    15
 1.0199690882     1     1     4     4
 -0.1805435499     1     1     4    10
 0.2350130133     1     1     4    13
 -0.0641084585     1     1     4    16
 -0.0447498500     1     1     5     2
 0.0594980835     1     1     5     3
 0.6972689781     1     1     5     5
 -0.3105124277     1     1     5     6
 -0.0374789570     1     1     5     7
 0.0380918813     1     1     5     8
 -0.0366812574     1     1     5     9
 0.0692799624     1     1     5    11
 0.0790066522     1     1     5    12
 -0.2154919149     1     1     5    14
 0.0044050803     1     1     5    15
 -0.0628024099     1     1     6     2
 0.0510682471     1     1     6     3
 -0.3105124277     1     1     6     5
 0.5217762043     1     1     6     6
 0.0196427773     1     1     6     7
 -0.0820455849     1     1     6     8
 0.0113867659     1     1     6     9
 -0.0167404961     1     1     6    11
 -0.1128323444     1     1     6    12
 0.2069842115     1     1     6    14
 0.0681610138     1     1     6    15
 0.1067925810     1     1     7     2
 0.1114017205     1     1     7     3
 -0.0374789570     1     1     7     5
 0.0196427773     1     1     7     6
 0.3111564127     1     1     7     7
 -0.0149517666     1     1     7     8
 0.0422932333     1     1     7     9
 0.1132693304     1     1     7    11
 0.0021898390     1     1     7    12
 0.0664417296     1     1     7    14
 -0.0617317110     1     1     7    15
 0.0081362386     1     1     8     2
 0.0009057669     1     1     8     3
 0.0380918813     1     1     8     5
 -0.0820455849     1     1     8     6
 -0.0149517666     1     1     8     7
 0.2194608922     1     1     8     8
 -0.0073347843     1     1     8     9
 0.0123077948     1     1     8    11
 0.0072921606     1     1     8    12
 -0.0344469090     1     1     8    14
 -0.0334493268     1     1     8    15
 0.0625134438     1     1     9     2
 -0.0146920807     1     1     9     3
 -0.0366812574     1     1     9     5
 0.0113867659     1     1     9     6
 0.0422932333     1     1     9     7
 -0.0073347843     1     1     9     8
 0.3340538040     1     1     9     9
 0.0288683369     1     1     9    11
 0.0268368858     1     1     9    12
 0.0545022050     1     1     9    14
 -0.0215492469     1     1     9    15
 -0.1805435499     1     1    10     4
 0.3479502914     1     1    10    10
 -0.1197607878     1     1    10    13
 0.0518224748     1     1    10    16
 0.0426026040     1     1    11     2
 0.2430771226     1     1    11     3
 0.0692799624     1     1    11     5
 -0.0167404961     1     1    11     6
 0.1132693304     1     1    11     7
 0.0123077948     1     1    11     8
 0.0288683369     1     1    11     9
 0.4978435608     1     1    11    11
 0.0009760135     1     1    11    12
 -0.0253815104     1     1    11    14
 -0.0263511095     1     1    11    15
 0.0604897975     1     1    12     2
 -0.0566909218     1     1    12     3
 0.0790066522     1     1    12     5
 -0.1128323444     1     1    12     6
 0.0021898390     1     1    12     7
 0.0072921606     1     1    12     8
 0.0268368858     1     1    12     9
 0.0009760135     1     1    12    11
 0.3493219238     1     1    12    12
 -0.0865356791     1     1    12    14
 -0.0077110861     1     1    12    15
 0.2350130133     1     1    13     4
 -0.1197607878     1     1    13    10
 0.4539080154     1     1    13    13
 -0.0087746182     1     1    13    16
 0.0454608777     1     1    14     2
 0.0161948621     1     1    14     3
 -0.2154919149     1     1    14     5
 0.2069842115     1     1    14     6
 0.0664417296     1     1    14     7
 -0.0344469090     1     1    14     8
 0.0545022050     1     1    14     9
 -0.0253815104     1     1    14    11
 -0.0865356791     1     1    14    12
 0.5135374025     1     1    14    14
 -0.0184844861     1     1    14    15
 -0.1249278826     1     1    15     2
 -0.0074105045     1     1    15     3
 0.0044050803     1     1    15     5
 0.0681610138     1     1    15     6
 -0.0617317110     1     1    15     7
 -0.0334493268     1     1    15     8
 -0.0215492469     1     1    15     9
 -0.0263511095     1     1    15    11
 -0.0077110861     1     1    15    12
 -0.0184844861     1     1    15    14
 0.3486925996     1     1    15    15
 -0.0641084585     1     1    16     4
 0.0518224748     1     1    16    10
 -0.0087746182     1     1    16    13
 0.3491547366     1     1    16    16
 -1.0054870333     1     2     2     1
 0.0065141254     1     2     2     3
 0.0002214860     1     2     2     5
 0.0007701237     1     2     2     6
 0.0020372167     1     2     2     7
 -0.0000400521     1     2     2     8
 0.0001978974     1     2     2     9
 0.0050117946     1     2     2    11
 -0.0009155607     1     2     2    12
 0.0009172917     1     2     2    14
 -0.0006324667     1     2     2    15
 0.0612891374     1     2     3     1
 0.0348617164     1     2     3     3
 0.0033944733     1     2     3     5
 0.0022417336     1     2     3     6
 0.0093089558     1     2     3     7
 -0.0000074648     1     2     3     8
 0.0012407764     1     2     3     9
 0.0217862458     1     2     3    11
 -0.0031526741     1     2     3    12
 0.0025803301     1     2     3    14
 -0.0024868504     1     2     3    15
 0.0439908205     1     2     4     4
 -0.0146151463     1     2     4    10
 0.0205790062     1     2     4    13
 -0.0050300864     1     2     4    16
 0.0447498500     1     2     5     1
 0.0028894762     1     2     5     3
 0.0239470168     1     2     5     5
 -0.0179500284     1     2     5     6
 -0.0016032961     1     2     5     7
 0.0034601535     1     2     5     8
 -0.0023664149     1     2     5     9
 0.0052650137     1     2     5    11
 0.0075939800     1     2     5    12
 -0.0181473129     1     2     5    14
 -0.0014457530     1     2     5    15
 0.0628024099     1     2     6     1
 0.0015552425     1     2     6     3
 -0.0158238951     1     2     6     5
 0.0150193231     1     2     6     6
 0.0024037503     1     2     6     7
 -0.0029083522     1     2     6     8
 0.0018898778     1     2     6     9
 -0.0016260952     1     2     6    11
 -0.0065447195     1     2     6    12
 0.0150046060     1     2     6    14
 0.0010269999     1     2     6    15
 -0.1067925810     1     2     7     1
 0.0080896652     1     2     7     3
 -0.0012207922     1     2     7     5
 0.0024894692     1     2     7     6
 0.0025986404     1     2     7     7
 -0.0003902802     1     2     7     8
 0.0005992025     1     2     7     9
 0.0054627937     1     2     7    11
 -0.0015386710     1     2     7    12
 0.0026617398     1     2     7    14
 -0.0006604500     1     2     7    15
 -0.0081362386     1     2     8     1
 0.0000664479     1     2     8     3
 0.0028898371     1     2     8     5
 -0.0027592577     1     2     8     6
 -0.0003590879     1     2     8     7
 0.0006683064     1     2     8     8
 -0.0004300897     1     2     8     9
 0.0006138744     1     2     8    11
 0.0011690765     1     2     8    12
 -0.0028099279     1     2     8    14
 -0.0002423312     1     2     8    15
 -0.0625134438     1     2     9     1
 0.0010650007     1     2     9     3
 -0.0017954314     1     2     9     5
 0.0016503170     1     2     9     6
 0.0005745488     1     2     9     7
 -0.0003996189     1     2     9     8
 0.0004671530     1     2     9     9
 -0.0001058415     1     2     9    11
 -0.0005963085     1     2     9    12
 0.0016820064     1     2     9    14
 -0.0000285672     1     2     9    15
 -0.0111491592     1     2    10     4
 0.0048178256     1     2    10    10
 -0.0063677450     1     2    10    13
 0.0017052313     1     2    10    16
 -0.0426026040     1     2    11     1
 0.0162914694     1     2    11     3
 0.0042467695     1     2    11     5
 -0.0010746756     1     2    11     6
 0.0045465308     1     2    11     7
 0.0004970479     1     2    11     8
 -0.0002341755     1     2    11     9
 0.0123814246     1     2    11    11
 -0.0011065562     1     2    11    12
 -0.0012025950     1     2    11    14
 -0.0012962423     1     2    11    15
 -0.0604897975     1     2    12     1
 -0.0020572460     1     2    12     3
 0.0056076596     1     2    12     5
 -0.0056091132     1     2    12     6
 -0.0011985972     1     2    12     7
 0.0010531452     1     2    12     8
 -0.0005540619     1     2    12     9
 -0.0008649790     1     2    12    11
 0.0027033920     1     2    12    12
 -0.0052970790     1     2    12    14
 -0.0004505300     1     2    12    15
 0.0150114437     1     2    13     4
 -0.0060741885     1     2    13    10
 0.0082943317     1     2    13    13
 -0.0025395390     1     2    13    16
 -0.0454608777     1     2    14     1
 0.0020803868     1     2    14     3
 -0.0135115387     1     2    14     5
 0.0129544523     1     2    14     6
 0.0023831097     1     2    14     7
 -0.0025439022     1     2    14     8
 0.0016529251     1     2    14     9
 -0.0010159339     1     2    14    11
 -0.0054412339     1     2    14    12
 0.0131814608     1     2    14    14
 0.0009362587     1     2    14    15
 0.1249278826     1     2    15     1
 -0.0026873083     1     2    15     3
 -0.0014281461     1     2    15     5
 0.0009953781     1     2    15     6
 -0.0008114242     1     2    15     7
 -0.0002583827     1     2    15     8
 -0.0000013145     1     2    15     9
 -0.0021038768     1     2    15    11
 -0.0003940931     1     2    15    12
 0.0010959393     1     2    15    14
 0.0005619313     1     2    15    15
 -0.0040877542     1     2    16     4
 0.0018196490     1     2    16    10
 -0.0028071158     1     2    16    13
 0.0005295103     1     2    16    16
 0.0612891374     1     3     2     1
 -0.0065141254     1     3     2     2
 0.0005022030     1     3     2     5
 0.0006162223     1     3     2     6
 0.0005989370     1     3     2     7
 -0.0000866918     1     3     2     8
 0.0001067694     1     3     2     9
 0.0042334101     1     3     2    11
 -0.0009206866     1     3     2    12
 0.0003304041     1     3     2    14
 0.0004057199     1     3     2    15
 -0.9167453933     1     3     3     1
 -0.0348617164     1     3     3     2
 0.0017121987     1     3     3     5
 0.0031300817     1     3     3     6
 -0.0054375303     1     3     3     7
 -0.0006694893     1     3     3     8
 -0.0006061676     1     3     3     9
 -0.0020932471     1     3     3    11
 -0.0018000551     1     3     3    12
 -0.0019716104     1     3     3    14
 0.0079611311     1     3     3    15
 -0.0126925442     1     3     4     4
 0.0045780357     1     3     4    10
 -0.0040660138     1     3     4    13
 0.0044311805     1     3     4    16
 -0.0594980835     1     3     5     1
 -0.0028894762     1     3     5     2
 -0.0064497972     1     3     5     5
 0.0063091584     1     3     5     6
 0.0002577676     1     3     5     7
 -0.0016854966     1     3     5     8
 -0.0005247961     1     3     5     9
 -0.0011761385     1     3     5    11
 -0.0010339939     1     3     5    12
 0.0052238833     1     3     5    14
 0.0026313698     1     3     5    15
 -0.0510682471     1     3     6     1
 -0.0015552425     1     3     6     2
 0.0049153881     1     3     6     5
 -0.0036245851     1     3     6     6
 -0.0004427877     1     3     6     7
 0.0009199093     1     3     6     8
 -0.0004392759     1     3     6     9
 0.0011106812     1     3     6    11
 0.0006490770     1     3     6    12
 -0.0036832213     1     3     6    14
 -0.0010757749     1     3     6    15
 -0.1114017205     1     3     7     1
 -0.0080896652     1     3     7     2
 0.0011281865     1     3     7     5
 0.0006963145     1     3     7     6
 -0.0041002325     1     3     7     7
 -0.0002155593     1     3     7     8
 -0.0008034887     1     3     7     9
 -0.0030481449     1     3     7    11
 -0.0001113011     1     3     7    12
 -0.0012794199     1     3     7    14
 0.0026047796     1     3     7    15
 -0.0009057669     1     3     8     1
 -0.0000664479     1     3     8     2
 -0.0009320064     1     3     8     5
 0.0006004716     1     3     8     6
 -0.0000863417     1     3     8     7
 0.0004127505     1     3     8     8
 -0.0004538412     1     3     8     9
 0.0001141596     1     3     8    11
 -0.0000650130     1     3     8    12
 0.0002023148     1     3     8    14
 0.0002360313     1     3     8    15
 0.0146920807     1     3     9     1
 -0.0010650007     1     3     9     2
 0.0001693023     1     3     9     5
 -0.0008301554     1     3     9     6
 -0.0009577898     1     3     9     7
 -0.0003322045     1     3     9     8
 -0.0000806740     1     3     9     9
 -0.0039794128     1     3     9    11
 0.0009991517     1     3     9    12
 -0.0019422483     1     3     9    14
 0.0007158244     1     3     9    15
 0.0031956244     1     3    10     4
 -0.0004671020     1     3    10    10
 0.0017153868     1     3    10    13
 -0.0005884841     1     3    10    16
 -0.2430771226     1     3    11     1
 -0.0162914694     1     3    11     2
 0.0003039264     1     3    11     5
 0.0031916815     1     3    11     6
 -0.0059348934     1     3    11     7
 -0.0003840527     1     3    11     8
 -0.0042833402     1     3    11     9
 -0.0054878414     1     3    11    11
 -0.0034257643     1     3    11    12
 -0.0017230853     1     3    11    14
 0.0061812112     1     3    11    15
 0.0566909218     1     3    12     1
 0.0020572460     1     3    12     2
 -0.0016716501     1     3    12     5
 0.0013699883     1     3    12     6
 0.0009405113     1     3    12     7
 -0.0003302147     1     3    12     8
 0.0009955483     1     3    12     9
 -0.0023454889     1     3    12    11
 -0.0001993069     1     3    12    12
 0.0032903158     1     3    12    14
 -0.0006032672     1     3    12    15
 -0.0046351518     1     3    13     4
 0.0026018790     1     3    13    10
 -0.0045960847     1     3    13    13
 -0.0009445915     1     3    13    16
 -0.0161948621     1     3    14     1
 -0.0020803868     1     3    14     2
 0.0042821897     1     3    14     5
 -0.0032253245     1     3    14     6
 -0.0011243617     1     3    14     7
 0.0004915857     1     3    14     8
 -0.0013463666     1     3    14     9
 -0.0006611163     1     3    14    11
 0.0020300348     1     3    14    12
 -0.0040421864     1     3    14    14
 0.0011495979     1     3    14    15
 0.0074105045     1     3    15     1
 0.0026873083     1     3    15     2
 0.0001828074     1     3    15     5
 -0.0006382258     1     3    15     6
 0.0010223184     1     3    15     7
 0.0000842423     1     3    15     8
 0.0006462625     1     3    15     9
 0.0010828463     1     3    15    11
 -0.0003078859     1     3    15    12
 0.0018535240     1     3    15    14
 -0.0015661956     1     3    15    15
 0.0009182555     1     3    16     4
 0.0004904897     1     3    16    10
 -0.0027568300     1     3    16    13
 -0.0013680942     1     3    16    16
 -0.0026014685     1     4     2    10
 0.0044161369     1     4     2    13
 -0.0006354927     1     4     2    16
 0.0011881211     1     4     3    10
 0.0008833341     1     4     3    13
 0.0034921809     1     4     3    16
 -1.0199690882     1     4     4     1
 -0.0439908205     1     4     4     2
 0.0126925442     1     4     4     3
 0.0034696362     1     4     4     5
 0.0052743395     1     4     4     6
 -0.0058190404     1     4     4     7
 -0.0010878264     1     4     4     8
 -0.0065670187     1     4     4     9
 -0.0007404483     1     4     4    11
 -0.0068674621     1     4     4    12
 -0.0039048389     1     4     4    14
 0.0098100223     1     4     4    15
 -0.0012131352     1     4     5    10
 -0.0007637594     1     4     5    13
 0.0008090754     1     4     5    16
 -0.0001230434     1     4     6    10
 0.0005628638     1     4     6    13
 -0.0000931858     1     4     6    16
 0.0009957604     1     4     7    10
 -0.0014762011     1     4     7    13
 0.0005339590     1     4     7    16
 -0.0005066746     1     4     8    10
 0.0002703201     1     4     8    13
 -0.0003787890     1     4     8    16
 -0.0003138228     1     4     9    10
 0.0007080649     1     4     9    13
 -0.0002149821     1     4     9    16
 0.1805435499     1     4    10     1
 0.0111491592     1     4    10     2
 -0.0031956244     1     4    10     3
 -0.0015504374     1     4    10     5
 -0.0025179467     1     4    10     6
 0.0027921603     1     4    10     7
 -0.0000187420     1     4    10     8
 0.0018411080     1     4    10     9
 -0.0004264165     1     4    10    11
 0.0025307034     1     4    10    12
 0.0004290292     1     4    10    14
 -0.0045902345     1     4    10    15
 -0.0006164263     1     4    11    10
 0.0008700498     1     4    11    13
 -0.0004996998     1     4    11    16
 -0.0000879139     1     4    12    10
 0.0003207299     1     4    12    13
 0.0002030656     1     4    12    16
 -0.2350130133     1     4    13     1
 -0.0150114437     1     4    13     2
 0.0046351518     1     4    13     3
 0.0012295582     1     4    13     5
 0.0024555203     1     4    13     6
 -0.0048328615     1     4    13     7
 -0.0001582189     1     4    13     8
 -0.0025179256     1     4    13     9
 -0.0006465088     1     4    13    11
 -0.0025511002     1     4    13    12
 -0.0024285366     1     4    13    14
 0.0057956603     1     4    13    15
 -0.0002627719     1     4    14    10
 0.0000529554     1     4    14    13
 0.0001905699     1     4    14    16
 -0.0012632405     1     4    15    10
 0.0010341625     1     4    15    13
 -0.0004084421     1     4    15    16
 0.0641084585     1     4    16     1
 0.0040877542     1     4    16     2
 -0.0009182555     1     4    16     3
 -0.0003138285     1     4    16     5
 -0.0005532694     1     4    16     6
 0.0004483537     1     4    16     7
 -0.0003189641     1     4    16     8
 0.0005694316     1     4    16     9
 -0.0023522652     1     4    16    11
 0.0011856109     1     4    16    12
 0.0007994585     1     4    16    14
 -0.0013081648     1     4    16    15
 0.0447498500     1     5     2     1
 -0.0002214860     1     5     2     2
 -0.0005022030     1     5     2     3
 -0.0009999414     1     5     2     6
 -0.0002964314     1     5     2     7
 0.0003391396     1     5     2     8
 -0.0004357693     1     5     2     9
 0.0006777964     1     5     2    11
 0.0015620727     1     5     2    12
 -0.0036020657     1     5     2    14
 0.0000712171     1     5     2    15
 -0.0594980835     1     5     3     1
 -0.0033944733     1     5     3     2
 -0.0017121987     1     5     3     3
 0.0010919665     1     5     3     6
 -0.0009497993     1     5     3     7
 -0.0006774080     1     5     3     8
 -0.0006765294     1     5     3     9
 -0.0015260033     1     5     3    11
 0.0007198651     1     5     3    12
 0.0006670697     1     5     3    14
 0.0024166453     1     5     3    15
 -0.0034696362     1     5     4     4
 0.0004818349     1     5     4    10
 -0.0020779945     1     5     4    13
 0.0011365114     1     5     4    16
 -0.6972689781     1     5     5     1
 -0.0239470168     1     5     5     2
 0.0064497972     1     5     5     3
 0.0017538514     1     5     5     6
 -0.0033481929     1     5     5     7
 0.0004572468     1     5     5     8
 -0.0037685668     1     5     5     9
 -0.0011491316     1     5     5    11
 -0.0025689016     1     5     5    12
 -0.0012839967     1     5     5    14
 0.0037208588     1     5     5    15
 0.3105124277     1     5     6     1
 0.0158238951     1     5     6     2
 -0.0049153881     1     5     6     3
 -0.0050399239     1     5     6     6
 0.0019483052     1     5     6     7
 0.0008016361     1     5     6     8
 0.0025159257     1     5     6     9
 0.0006271987     1     5     6    11
 0.0034298433     1     5     6    12
 -0.0011702365     1     5     6    14
 -0.0031936314     1     5     6    15
 0.0374789570     1     5     7     1
 0.0012207922     1     5     7     2
 -0.0011281865     1     5     7     3
 -0.0003706265     1     5     7     6
 -0.0000103213     1     5     7     7
 0.0001669390     1     5     7     8
 0.0003597998     1     5     7     9
 -0.0009158831     1     5     7    11
 0.0000379671     1     5     7    12
 0.0009174086     1     5     7    14
 -0.0001012846     1     5     7    15
 -0.0380918813     1     5     8     1
 -0.0028898371     1     5     8     2
 0.0009320064     1     5     8     3
 0.0015151525     1     5     8     6
 -0.0000725869     1     5     8     7
 -0.0016278044     1     5     8     8
 -0.0006072806     1     5     8     9
 0.0002449840     1     5     8    11
 -0.0011063269     1     5     8    12
 0.0005932655     1     5     8    14
 0.0009378475     1     5     8    15
 0.0366812574     1     5     9     1
 0.0017954314     1     5     9     2
 -0.0001693023     1     5     9     3
 -0.0004120299     1     5     9     6
 0.0006338702     1     5     9     7
 -0.0001129136     1     5     9     8
 -0.0007934596     1     5     9     9
 0.0008149624     1     5     9    11
 0.0015232786     1     5     9    12
 -0.0001099954     1     5     9    14
 -0.0005634015     1     5     9    15
 0.0015504374     1     5    10     4
 -0.0025243630     1     5    10    10
 0.0003950494     1     5    10    13
 0.0001684545     1     5    10    16
 -0.0692799624     1     5    11     1
 -0.0042467695     1     5    11     2
 -0.0003039264     1     5    11     3
 0.0007989030     1     5    11     6
 -0.0017145177     1     5    11     7
 0.0000485810     1     5    11     8
 -0.0005881438     1     5    11     9
 -0.0009924705     1     5    11    11
 -0.0006300767     1     5    11    12
 -0.0015780918     1     5    11    14
 0.0015483618     1     5    11    15
 -0.0790066522     1     5    12     1
 -0.0056076596     1     5    12     2
 0.0016716501     1     5    12     3
 0.0017769166     1     5    12     6
 -0.0016143892     1     5    12     7
 -0.0004756524     1     5    12     8
 0.0001075688     1     5    12     9
 -0.0013170243     1     5    12    11
 -0.0017961918     1     5    12    12
 0.0002967712     1     5    12    14
 0.0025984750     1     5    12    15
 -0.0012295582     1     5    13     4
 -0.0004438576     1     5    13    10
 -0.0007722628     1     5    13    13
 0.0001699331     1     5    13    16
 0.2154919149     1     5    14     1
 0.0135115387     1     5    14     2
 -0.0042821897     1     5    14     3
 -0.0034020125     1     5    14     6
 0.0033182466     1     5    14     7
 0.0003248245     1     5    14     8
 0.0025821686     1     5    14     9
 -0.0005894448     1     5    14    11
 0.0029399685     1     5    14    12
 0.0008871522     1     5    14    14
 -0.0052254601     1     5    14    15
 -0.0044050803     1     5    15     1
 0.0014281461     1     5    15     2
 -0.0001828074     1     5    15     3
 -0.0009090168     1     5    15     6
 -0.0001690243     1     5    15     7
 0.0004570507     1     5    15     8
 0.0000556950     1     5    15     9
 -0.0003177548     1     5    15    11
 0.0016999378     1     5    15    12
 -0.0025921144     1     5    15    14
 -0.0014217102     1     5    15    15
 0.0003138285     1     5    16     4
 0.0006037705     1     5    16    10
 -0.0001227405     1     5    16    13
 0.0000358495     1     5    16    16
 0.0628024099     1     6     2     1
 -0.0007701237     1     6     2     2
 -0.0006162223     1     6     2     3
 0.0009999414     1     6     2     5
 -0.0001018601     1     6     2     7
 -0.0001268696     1     6     2     8
 0.0002307900     1     6     2     9
 -0.0005677003     1     6     2    11
 -0.0009323193     1     6     2    12
 0.0020087482     1     6     2    14
 0.0000639751     1     6     2    15
 -0.0510682471     1     6     3     1
 -0.0022417336     1     6     3     2
 -0.0031300817     1     6     3     3
 -0.0010919665     1     6     3     5
 -0.0011659887     1     6     3     7
 0.0003183553     1     6     3     8
 0.0003973017     1     6     3     9
 -0.0021006178     1     6     3    11
 -0.0007529599     1     6     3    12
 -0.0004667532     1     6     3    14
 -0.0004242357     1     6     3    15
 -0.0052743395     1     6     4     4
 0.0024198938     1     6     4    10
 -0.0018779093     1     6     4    13
 0.0004596499     1     6     4    16
 0.3105124277     1     6     5     1
 0.0179500284     1     6     5     2
 -0.0063091584     1     6     5     3
 -0.0017538514     1     6     5     5
 0.0023722319     1     6     5     7
 -0.0007464470     1     6     5     8
 0.0029969720     1     6     5     9
 -0.0002157900     1     6     5    11
 0.0017205048     1     6     5    12
 0.0022855382     1     6     5    14
 -0.0023581063     1     6     5    15
 -0.5217762043     1     6     6     1
 -0.0150193231     1     6     6     2
 0.0036245851     1     6     6     3
 0.0050399239     1     6     6     5
 -0.0024550505     1     6     6     7
 0.0001573269     1     6     6     8
 -0.0026367941     1     6     6     9
 -0.0002025940     1     6     6    11
 -0.0011882082     1     6     6    12
 -0.0032836827     1     6     6    14
 0.0024329879     1     6     6    15
 -0.0196427773     1     6     7     1
 -0.0024894692     1     6     7     2
 -0.0006963145     1     6     7     3
 0.0003706265     1     6     7     5
 -0.0010883095     1     6     7     7
 -0.0001040644     1     6     7     8
 -0.0005076682     1     6     7     9
 -0.0007584870     1     6     7    11
 0.0002008837     1     6     7    12
 -0.0013359440     1     6     7    14
 0.0006201409     1     6     7    15
 0.0820455849     1     6     8     1
 0.0027592577     1     6     8     2
 -0.0006004716     1     6     8     3
 -0.0015151525     1     6     8     5
 0.0002969623     1     6     8     7
 0.0011057619     1     6     8     8
 0.0005922078     1     6     8     9
 -0.0002371957     1     6     8    11
 0.0003990067     1     6     8    12
 0.0007152008     1     6     8    14
 -0.0007029049     1     6     8    15
 -0.0113867659     1     6     9     1
 -0.0016503170     1     6     9     2
 0.0008301554     1     6     9     3
 0.0004120299     1     6     9     5
 -0.0004780147     1     6     9     7
 0.0001035587     1     6     9     8
 0.0005886915     1     6     9     9
 -0.0006555354     1     6     9    11
 -0.0010349397     1     6     9    12
 -0.0003594823     1     6     9    14
 0.0004779944     1     6     9    15
 0.0025179467     1     6    10     4
 0.0006947177     1     6    10    10
 0.0015779843     1     6    10    13
 -0.0006469528     1     6    10    16
 0.0167404961     1     6    11     1
 0.0010746756     1     6    11     2
 -0.0031916815     1     6    11     3
 -0.0007989030     1     6    11     5
 -0.0003842199     1     6    11     7
 -0.0001780625     1     6    11     8
 -0.0001250879     1     6    11     9
 -0.0023386550     1     6    11    11
 0.0002171976     1     6    11    12
 0.0011769581     1     6    11    14
 -0.0000680798     1     6    11    15
 0.1128323444     1     6    12     1
 0.0056091132     1     6    12     2
 -0.0013699883     1     6    12     3
 -0.0017769166     1     6    12     5
 0.0016651052     1     6    12     7
 0.0000928903     1     6    12     8
 0.0002569716     1     6    12     9
 0.0006429157     1     6    12    11
 0.0008821475     1     6    12    12
 0.0014974825     1     6    12    14
 -0.0021163738     1     6    12    15
 -0.0024555203     1     6    13     4
 0.0017286360     1     6    13    10
 -0.0014273084     1     6    13    13
 0.0001572933     1     6    13    16
 -0.2069842115     1     6    14     1
 -0.0129544523     1     6    14     2
 0.0032253245     1     6    14     3
 0.0034020125     1     6    14     5
 -0.0033994226     1     6    14     7
 0.0002537916     1     6    14     8
 -0.0026361554     1     6    14     9
 0.0003880801     1     6    14    11
 -0.0011449058     1     6    14    12
 -0.0037176161     1     6    14    14
 0.0043468154     1     6    14    15
 -0.0681610138     1     6    15     1
 -0.0009953781     1     6    15     2
 0.0006382258     1     6    15     3
 0.0009090168     1     6    15     5
 0.0003105018     1     6    15     7
 -0.0002161218     1     6    15     8
 -0.0000366956     1     6    15     9
 0.0008232330     1     6    15    11
 -0.0011262278     1     6    15    12
 0.0016143290     1     6    15    14
 0.0008113379     1     6    15    15
 0.0005532694     1     6    16     4
 -0.0006712631     1     6    16    10
 0.0001291842     1     6    16    13
 -0.0002871975     1     6    16    16
 -0.1067925810     1     7     2     1
 -0.0020372167     1     7     2     2
 -0.0005989370     1     7     2     3
 0.0002964314     1     7     2     5
 0.0001018601     1     7     2     6
 -0.0000273918     1     7     2     8
 0.0000256541     1     7     2     9
 0.0009344812     1     7     2    11
 -0.0003415212     1     7     2    12
 0.0002756536     1     7     2    14