&FCI NORB= 12,NELEC= 10,MS2=0,
 ORBSYM=1,1,1,1,1,1,1,1,1,1,1,1
 ISYM=1,
&END
 0.9839923283     1     1     2     2
 0.0689311071     1     1     2     4
 -0.1432487342     1     1     2     6
 -0.1141185759     1     1     2     9
 0.0388046140     1     1     2    10
 -0.0674987927     1     1     2    12
 0.8687314935     1     1     3     3
 0.1740169244     1     1     3     7
 0.1034535527     1     1     3     8
 0.0689311071     1     1     4     2
 0.9533645717     1     1     4     4
 0.0772183129     1     1     4     6
 0.0611649587     1     1     4     9
 -0.2600515693     1     1     4    10
 0.0389245971     1     1     4    12
 1.0035391749     1     1     5     5
 -0.3354917128     1     1     5    11
 -0.1432487342     1     1     6     2
 0.0772183129     1     1     6     4
 0.3477863022     1     1     6     6
 0.1071900220     1     1     6     9
 -0.0898942190     1     1     6    10
 0.0571437312     1     1     6    12
 0.1740169244     1     1     7     3
 0.3252934867     1     1     7     7
 0.0988046208     1     1     7     8
 0.1034535527     1     1     8     3
 0.0988046208     1     1     8     7
 0.4543133419     1     1     8     8
 -0.1141185759     1     1     9     2
 0.0611649587     1     1     9     4
 0.1071900220     1     1     9     6
 0.4543837893     1     1     9     9
 -0.0560500928     1     1     9    10
 0.0197635969     1     1     9    12
 0.0388046140     1     1    10     2
 -0.2600515693     1     1    10     4
 -0.0898942190     1     1    10     6
 -0.0560500928     1     1    10     9
 0.5357654503     1     1    10    10
 -0.0456889252     1     1    10    12
 -0.3354917128     1     1    11     5
 0.6615331646     1     1    11    11
 -0.0674987927     1     1    12     2
 0.0389245971     1     1    12     4
 0.0571437312     1     1    12     6
 0.0197635969     1     1    12     9
 -0.0456889252     1     1    12    10
 0.4314111647     1     1    12    12
 -0.9839923283     1     2     2     1
 -0.0069319337     1     2     2     4
 -0.0014761612     1     2     2     6
 -0.0018245227     1     2     2     9
 0.0056497539     1     2     2    10
 -0.0014540303     1     2     2    12
 0.0307716147     1     2     3     3
 0.0131016321     1     2     3     7
 0.0116558980     1     2     3     8
 -0.0689311071     1     2     4     1
 0.0359423884     1     2     4     4
 0.0072450895     1     2     4     6
 0.0079253174     1     2     4     9
 -0.0223125994     1     2     4    10
 0.0059283270     1     2     4    12
 0.0411715968     1     2     5     5
 -0.0289006176     1     2     5    11
 0.1432487342     1     2     6     1
 0.0071393686     1     2     6     4
 0.0018002177     1     2     6     6
 0.0021715002     1     2     6     9
 -0.0052297600     1     2     6    10
 0.0014856390     1     2     6    12
 0.0097819810     1     2     7     3
 0.0048976144     1     2     7     7
 0.0043240109     1     2     7     8
 0.0078682476     1     2     8     3
 0.0038462496     1     2     8     7
 0.0033741289     1     2     8     8
 0.1141185759     1     2     9     1
 0.0069718514     1     2     9     4
 0.0019112752     1     2     9     6
 0.0016944043     1     2     9     9
 -0.0053267480     1     2     9    10
 0.0014421074     1     2     9    12
 -0.0388046140     1     2    10     1
 -0.0168684086     1     2    10     4
 -0.0037343436     1     2    10     6
 -0.0043886126     1     2    10     9
 0.0134812975     1     2    10    10
 -0.0027051076     1     2    10    12
 -0.0214559171     1     2    11     5
 0.0191677084     1     2    11    11
 0.0674987927     1     2    12     1
 0.0042895175     1     2    12     4
 0.0010146386     1     2    12     6
 0.0011263241     1     2    12     9
 -0.0025486900     1     2    12    10
 0.0006358283     1     2    12    12
 0.0026226895     1     3     2     7
 0.0032488129     1     3     2     8
 -0.8687314935     1     3     3     1
 -0.0307716147     1     3     3     2
 -0.0105378169     1     3     3     4
 0.0045816590     1     3     3     6
 0.0002545696     1     3     3     9
 0.0025897922     1     3     3    10
 0.0050055683     1     3     3    12
 -0.0013021096     1     3     4     7
 -0.0050035747     1     3     4     8
 0.0021336932     1     3     6     7
 -0.0004346827     1     3     6     8
 -0.1740169244     1     3     7     1
 -0.0097819810     1     3     7     2
 -0.0034817299     1     3     7     4
 0.0045596164     1     3     7     6
 0.0025625191     1     3     7     9
 -0.0001726670     1     3     7    10
 0.0016774303     1     3     7    12
 -0.1034535527     1     3     8     1
 -0.0078682476     1     3     8     2
 -0.0025095440     1     3     8     4
 0.0027626157     1     3     8     6
 0.0046575668     1     3     8     9
 -0.0038737184     1     3     8    10
 0.0035110498     1     3     8    12
 0.0019775508     1     3     9     7
 0.0028948829     1     3     9     8
 0.0002045791     1     3    10     7
 -0.0004959564     1     3    10     8
 -0.0008291559     1     3    12     7
 0.0006382555     1     3    12     8
 -0.0689311071     1     4     2     1
 0.0069319337     1     4     2     2
 -0.0003916388     1     4     2     6
 0.0004964770     1     4     2     9
 -0.0042056652     1     4     2    10
 0.0013489628     1     4     2    12
 0.0105378169     1     4     3     3
 0.0023366129     1     4     3     7
 -0.0024166233     1     4     3     8
 -0.9533645717     1     4     4     1
 -0.0359423884     1     4     4     2
 0.0092219188     1     4     4     6
 0.0096897824     1     4     4     9
 -0.0065857354     1     4     4    10
 0.0003041240     1     4     4    12
 0.0138232006     1     4     5     5
 -0.0091975139     1     4     5    11
 -0.0772183129     1     4     6     1
 -0.0071393686     1     4     6     2
 0.0041285622     1     4     6     6
 0.0029086806     1     4     6     9
 -0.0038104003     1     4     6    10
 0.0011237898     1     4     6    12
 0.0034817299     1     4     7     3
 0.0027649765     1     4     7     7
 0.0011661024     1     4     7     8
 0.0025095440     1     4     8     3
 0.0028990895     1     4     8     7
 0.0028292945     1     4     8     8
 -0.0611649587     1     4     9     1
 -0.0069718514     1     4     9     2
 0.0029964730     1     4     9     6
 0.0060375117     1     4     9     9
 -0.0020156530     1     4     9    10
 0.0007374119     1     4     9    12
 0.2600515693     1     4    10     1
 0.0168684086     1     4    10     2
 -0.0082922229     1     4    10     6
 -0.0067014905     1     4    10     9
 0.0029215816     1     4    10    10
 -0.0047343448     1     4    10    12
 -0.0076144387     1     4    11     5
 0.0065585683     1     4    11    11
 -0.0389245971     1     4    12     1
 -0.0042895175     1     4    12     2
 0.0026813988     1     4    12     6
 0.0023164479     1     4    12     9
 -0.0058129483     1     4    12    10
 0.0034612247     1     4    12    12
 -0.0059155295     1     5     2    11
 -0.0011505137     1     5     4    11
 -1.0035391749     1     5     5     1
 -0.0411715968     1     5     5     2
 -0.0138232006     1     5     5     4
 0.0089395166     1     5     5     6
 0.0119150487     1     5     5     9
 0.0029261172     1     5     5    10
 0.0065553667     1     5     5    12
 -0.0023297619     1     5     6    11
 0.0023207076     1     5     9    11
 0.0016324563     1     5    10    11
 0.3354917128     1     5    11     1
 0.0214559171     1     5    11     2
 0.0076144387     1     5    11     4
 -0.0089084090     1     5    11     6
 -0.0065312896     1     5    11     9
 -0.0000528028     1     5    11    10
 -0.0039202343     1     5    11    12
 0.0009356666     1     5    12    11
 0.1432487342     1     6     2     1
 0.0014761612     1     6     2     2
 0.0003916388     1     6     2     4
 0.0003053824     1     6     2     9
 -0.0014842569     1     6     2    10
 0.0004795869     1     6     2    12
 -0.0045816590     1     6     3     3
 -0.0024572076     1     6     3     7
 -0.0032170815     1     6     3     8
 -0.0772183129     1     6     4     1
 -0.0072450895     1     6     4     2
 -0.0092219188     1     6     4     4
 -0.0001380948     1     6     4     9
 0.0044992112     1     6     4    10
 -0.0015538536     1     6     4    12
 -0.0089395166     1     6     5     5
 0.0064591675     1     6     5    11
 -0.3477863022     1     6     6     1
 -0.0018002177     1     6     6     2
 -0.0041285622     1     6     6     4
 -0.0003788120     1     6     6     9
 0.0018948142     1     6     6    10
 -0.0004299694     1     6     6    12
 -0.0045596164     1     6     7     3
 -0.0017803738     1     6     7     7
 -0.0017581730     1     6     7     8
 -0.0027626157     1     6     8     3
 -0.0008474692     1     6     8     7
 -0.0005940369     1     6     8     8
 -0.1071900220     1     6     9     1
 -0.0019112752     1     6     9     2
 -0.0029964730     1     6     9     4
 0.0007103524     1     6     9     9
 0.0016066000     1     6     9    10
 -0.0003525840     1     6     9    12
 0.0898942190     1     6    10     1
 0.0037343436     1     6    10     2
 0.0082922229     1     6    10     4
 0.0005850654     1     6    10     9
 -0.0051504654     1     6    10    10
 0.0002410753     1     6    10    12
 0.0089084090     1     6    11     5
 -0.0068624370     1     6    11    11
 -0.0571437312     1     6    12     1
 -0.0010146386     1     6    12     2
 -0.0026813988     1     6    12     4
 -0.0001471782     1     6    12     9
 0.0003983225     1     6    12    10
 0.0004098482     1     6    12    12
 -0.0026226895     1     7     2     3
 0.0004671998     1     7     2     8
 -0.1740169244     1     7     3     1
 -0.0131016321     1     7     3     2
 -0.0023366129     1     7     3     4
 0.0024572076     1     7     3     6
 0.0005900419     1     7     3     9
 -0.0003014847     1     7     3    10
 0.0025251630     1     7     3    12
 0.0013021096     1     7     4     3
 -0.0017487760     1     7     4     8
 -0.0021336932     1     7     6     3
 -0.0009117510     1     7     6     8
 -0.3252934867     1     7     7     1
 -0.0048976144     1     7     7     2
 -0.0027649765     1     7     7     4
 0.0017803738     1     7     7     6
 0.0009299184     1     7     7     9
 0.0006137201     1     7     7    10
 0.0005969895     1     7     7    12
 -0.0988046208     1     7     8     1
 -0.0038462496     1     7     8     2
 -0.0028990895     1     7     8     4
 0.0008474692     1     7     8     6
 0.0016149627     1     7     8     9
 -0.0005498598     1     7     8    10
 0.0012663108     1     7     8    12
 -0.0019775508     1     7     9     3
 0.0005438100     1     7     9     8
 -0.0002045791     1     7    10     3
 -0.0002989952     1     7    10     8
 0.0008291559     1     7    12     3
 0.0005625563     1     7    12     8
 -0.0032488129     1     8     2     3
 -0.0004671998     1     8     2     7
 -0.1034535527     1     8     3     1
 -0.0116558980     1     8     3     2
 0.0024166233     1     8     3     4
 0.0032170815     1     8     3     6
 0.0017925882     1     8     3     9
 -0.0032830424     1     8     3    10
 0.0028855367     1     8     3    12
 0.0050035747     1     8     4     3
 0.0017487760     1     8     4     7
 0.0004346827     1     8     6     3
 0.0009117510     1     8     6     7
 -0.0988046208     1     8     7     1
 -0.0043240109     1     8     7     2
 -0.0011661024     1     8     7     4
 0.0017581730     1     8     7     6
 0.0010722368     1     8     7     9
 -0.0002542407     1     8     7    10
 0.0007048737     1     8     7    12
 -0.4543133419     1     8     8     1
 -0.0033741289     1     8     8     2
 -0.0028292945     1     8     8     4
 0.0005940369     1     8     8     6
 0.0012377966     1     8     8     9
 -0.0002052854     1     8     8    10
 0.0009447124     1     8     8    12
 -0.0028948829     1     8     9     3
 -0.0005438100     1     8     9     7
 0.0004959564     1     8    10     3
 0.0002989952     1     8    10     7
 -0.0006382555     1     8    12     3
 -0.0005625563     1     8    12     7
 0.1141185759     1     9     2     1
 0.0018245227     1     9     2     2
 -0.0004964770     1     9     2     4
 -0.0003053824     1     9     2     6
 -0.0009442811     1     9     2    10
 0.0003026667     1     9     2    12
 -0.0002545696     1     9     3     3
 -0.0005900419     1     9     3     7
 -0.0017925882     1     9     3     8
 -0.0611649587     1     9     4     1
 -0.0079253174     1     9     4     2
 -0.0096897824     1     9     4     4
 0.0001380948     1     9     4     6
 0.0046488727     1     9     4    10
 -0.0015382184     1     9     4    12
 -0.0119150487     1     9     5     5
 0.0086534978     1     9     5    11
 -0.1071900220     1     9     6     1
 -0.0021715002     1     9     6     2
 -0.0029086806     1     9     6     4
 0.0003788120     1     9     6     6
 0.0010230202     1     9     6    10
 -0.0002056465     1     9     6    12
 -0.0025625191     1     9     7     3
 -0.0009299184     1     9     7     7
 -0.0010722368     1     9     7     8
 -0.0046575668     1     9     8     3
 -0.0016149627     1     9     8     7
 -0.0012377966     1     9     8     8
 -0.4543837893     1     9     9     1
 -0.0016944043     1     9     9     2
 -0.0060375117     1     9     9     4
 -0.0007103524     1     9     9     6
 0.0035720724     1     9     9    10
 -0.0008361403     1     9     9    12
 0.0560500928     1     9    10     1
 0.0043886126     1     9    10     2
 0.0067014905     1     9    10     4
 -0.0005850654     1     9    10     6
 -0.0040171537     1     9    10    10
 -0.0001053392     1     9    10    12
 0.0065312896     1     9    11     5
 -0.0051111798     1     9    11    11
 -0.0197635969     1     9    12     1
 -0.0011263241     1     9    12     2
 -0.0023164479     1     9    12     4
 0.0001471782     1     9    12     6
 0.0000754452     1     9    12    10
 0.0005047538     1     9    12    12
 -0.0388046140     1    10     2     1
 -0.0056497539     1    10     2     2
 0.0042056652     1    10     2     4
 0.0014842569     1    10     2     6
 0.0009442811     1    10     2     9
 -0.0001362758     1    10     2    12
 -0.0025897922     1    10     3     3
 0.0003014847     1    10     3     7
 0.0032830424     1    10     3     8
 0.2600515693     1    10     4     1
 0.0223125994     1    10     4     2
 0.0065857354     1    10     4     4
 -0.0044992112     1    10     4     6
 -0.0046488727     1    10     4     9
 0.0010458622     1    10     4    12
 -0.0029261172     1    10     5     5
 0.0017650171     1    10     5    11
 0.0898942190     1    10     6     1
 0.0052297600     1    10     6     2
 0.0038104003     1    10     6     4
 -0.0018948142     1    10     6     6
 -0.0010230202     1    10     6     9
 -0.0001554910     1    10     6    12
 0.0001726670     1    10     7     3
 -0.0006137201     1    10     7     7
 0.0002542407     1    10     7     8
 0.0038737184     1    10     8     3
 0.0005498598     1    10     8     7
 0.0002052854     1    10     8     8
 0.0560500928     1    10     9     1
 0.0053267480     1    10     9     2
 0.0020156530     1    10     9     4
 -0.0016066000     1    10     9     6
 -0.0035720724     1    10     9     9
 -0.0001813376     1    10     9    12
 -0.5357654503     1    10    10     1
 -0.0134812975     1    10    10     2
 -0.0029215816     1    10    10     4
 0.0051504654     1    10    10     6
 0.0040171537     1    10    10     9
 0.0028444905     1    10    10    12
 0.0000528028     1    10    11     5
 -0.0001068399     1    10    11    11
 0.0456889252     1    10    12     1
 0.0025486900     1    10    12     2
 0.0058129483     1    10    12     4
 -0.0003983225     1    10    12     6
 -0.0000754452     1    10    12     9
 -0.0013248991     1    10    12    12
 0.0059155295     1    11     2     5
 0.0011505137     1    11     4     5
 0.3354917128     1    11     5     1
 0.0289006176     1    11     5     2
 0.0091975139     1    11     5     4
 -0.0064591675     1    11     5     6
 -0.0086534978     1    11     5     9
 -0.0017650171     1    11     5    10
 -0.0047939282     1    11     5    12
 0.0023297619     1    11     6     5
 -0.0023207076     1    11     9     5
 -0.0016324563     1    11    10     5
 -0.6615331646     1    11    11     1
 -0.0191677084     1    11    11     2
 -0.0065585683     1    11    11     4
 0.0068624370     1    11    11     6
 0.0051111798     1    11    11     9
 0.0001068399     1    11    11    10
 0.0030644122     1    11    11    12
 -0.0009356666     1    11    12     5
 0.0674987927     1    12     2     1
 0.0014540303     1    12     2     2
 -0.0013489628     1    12     2     4
 -0.0004795869     1    12     2     6
 -0.0003026667     1    12     2     9
 0.0001362758     1    12     2    10
 -0.0050055683     1    12     3     3
 -0.0025251630     1    12     3     7
 -0.0028855367     1    12     3     8
 -0.0389245971     1    12     4     1
 -0.0059283270     1    12     4     2
 -0.0003041240     1    12     4     4
 0.0015538536     1    12     4     6
 0.0015382184     1    12     4     9
 -0.0010458622     1    12     4    10
 -0.0065553667     1    12     5     5
 0.0047939282     1    12     5    11
 -0.0571437312     1    12     6     1
 -0.0014856390     1    12     6     2
 -0.0011237898     1    12     6     4
 0.0004299694     1    12     6     6
 0.0002056465     1    12     6     9
 0.0001554910     1    12     6    10
 -0.0016774303     1    12     7     3
 -0.0005969895     1    12     7     7
 -0.0007048737     1    12     7     8
 -0.0035110498     1    12     8     3
 -0.0012663108     1    12     8     7
 -0.0009447124     1    12     8     8
 -0.0197635969     1    12     9     1
 -0.0014421074     1    12     9     2
 -0.0007374119     1    12     9     4
 0.0003525840     1    12     9     6
 0.0008361403     1    12     9     9
 0.0001813376     1    12     9    10
 0.0456889252     1    12    10     1
 0.0027051076     1    12    10     2
 0.0047343448     1    12    10     4
 -0.0002410753     1    12    10     6
 0.0001053392     1    12    10     9
 -0.0028444905     1    12    10    10
 0.0039202343     1    12    11     5
 -0.0030644122     1    12    11    11
 -0.4314111647     1    12    12     1
 -0.0006358283     1    12    12     2
 -0.0034612247     1    12    12     4
 -0.0004098482     1    12    12     6
 -0.0005047538     1    12    12     9
 0.0013248991     1    12    12    10
 -0.9839923283     2     1     1     2
 -0.0689311071     2     1     1     4
 0.1432487342     2     1     1     6
 0.1141185759     2     1     1     9
 -0.0388046140     2     1     1    10
 0.0674987927     2     1     1    12
 0.0307716147     2     1     3     3
 0.0097819810     2     1     3     7
 0.0078682476     2     1     3     8
 -0.0069319337     2     1     4     2
 0.0359423884     2     1     4     4
 0.0071393686     2     1     4     6
 0.0069718514     2     1     4     9
 -0.0168684086     2     1     4    10
 0.0042895175     2     1     4    12
 0.0411715968     2     1     5     5
 -0.0214559171     2     1     5    11
 -0.0014761612     2     1     6     2
 0.0072450895     2     1     6     4
 0.0018002177     2     1     6     6
 0.0019112752     2     1     6     9
 -0.0037343436     2     1     6    10
 0.0010146386     2     1     6    12
 0.0131016321     2     1     7     3
 0.0048976144     2     1     7     7
 0.0038462496     2     1     7     8
 0.0116558980     2     1     8     3
 0.0043240109     2     1     8     7
 0.0033741289     2     1     8     8
 -0.0018245227     2     1     9     2
 0.0079253174     2     1     9     4
 0.0021715002     2     1     9     6
 0.0016944043     2     1     9     9
 -0.0043886126     2     1     9    10
 0.0011263241     2     1     9    12
 0.0056497539     2     1    10     2
 -0.0223125994     2     1    10     4
 -0.0052297600     2     1    10     6
 -0.0053267480     2     1    10     9
 0.0134812975     2     1    10    10
 -0.0025486900     2     1    10    12
 -0.0289006176     2     1    11     5
 0.0191677084     2     1    11    11
 -0.0014540303     2     1    12     2
 0.0059283270     2     1    12     4
 0.0014856390     2     1    12     6
 0.0014421074     2     1    12     9
 -0.0027051076     2     1    12    10
 0.0006358283     2     1    12    12
 0.9839923283     2     2     1     1
 0.0069319337     2     2     1     4
 0.0014761612     2     2     1     6
 0.0018245227     2     2     1     9
 -0.0056497539     2     2     1    10
 0.0014540303     2     2     1    12
 0.5275679505     2     2     3     3
 0.0701361698     2     2     3     7
 0.0215358749     2     2     3     8
 0.0069319337     2     2     4     1
 0.5516284002     2     2     4     4
 0.0332861904     2     2     4     6
 0.0204027234     2     2     4     9
 -0.0977479534     2     2     4    10
 0.0039558865     2     2     4    12
 0.5802580066     2     2     5     5
 -0.1242289303     2     2     5    11
 0.0014761612     2     2     6     1
 0.0332861904     2     2     6     4
 0.3010033987     2     2     6     6
 0.0577810491     2     2     6     9
 -0.0524017892     2     2     6    10
 0.0291611457     2     2     6    12
 0.0701361698     2     2     7     3
 0.2841184231     2     2     7     7
 0.0606369637     2     2     7     8
 0.0215358749     2     2     8     3
 0.0606369637     2     2     8     7
 0.4058793903     2     2     8     8
 0.0018245227     2     2     9     1
 0.0204027234     2     2     9     4
 0.0577810491     2     2     9     6
 0.4068410620     2     2     9     9
 -0.0145638115     2     2     9    10
 -0.0048800012     2     2     9    12
 -0.0056497539     2     2    10     1
 -0.0977479534     2     2    10     4
 -0.0524017892     2     2    10     6
 -0.0145638115     2     2    10     9
 0.4054002099     2     2    10    10
 -0.0289560158     2     2    10    12
 -0.1242289303     2     2    11     5
 0.4736557302     2     2    11    11
 0.0014540303     2     2    12     1
 0.0039558865     2     2    12     4
 0.0291611457     2     2    12     6
 -0.0048800012     2     2    12     9
 -0.0289560158     2     2    12    10
 0.4044048260     2     2    12    12
 -0.0026226895     2     3     1     7
 -0.0032488129     2     3     1     8
 -0.0307716147     2     3     3     1
 -0.5275679505     2     3     3     2
 -0.0023497707     2     3     3     4
 0.0656883539     2     3     3     6
 0.0706167572     2     3     3     9
 -0.0160359017     2     3     3    10
 0.0052439971     2     3     3    12
 0.0105197452     2     3     4     7
 0.0332309148     2     3     4     8
 -0.0339625810     2     3     6     7
 0.0001507340     2     3     6     8
 -0.0131016321     2     3     7     1
 -0.0701361698     2     3     7     2
 0.0002418753     2     3     7     4
 -0.0191356710     2     3     7     6
 -0.0005078332     2     3     7     9
 -0.0004419964     2     3     7    10
 0.0093405102     2     3     7    12
 -0.0116558980     2     3     8     1
 -0.0215358749     2     3     8     2
 0.0043870010     2     3     8     4
 0.0033874357     2     3     8     6
 -0.0279294895     2     3     8     9
 0.0265289460     2     3     8    10
 -0.0158403878     2     3     8    12
 -0.0161373413     2     3     9     7
 -0.0292667781     2     3     9     8
 0.0032675850     2     3    10     7
 0.0233371825     2     3    10     8
 0.0049534127     2     3    12     7
 -0.0220104875     2     3    12     8
 0.0689311071     2     4     1     1
 -0.0069319337     2     4     1     2
 0.0003916388     2     4     1     6
 -0.0004964770     2     4     1     9
 0.0042056652     2     4     1    10
 -0.0013489628     2     4     1    12
 0.0023497707     2     4     3     3
 0.0100514322     2     4     3     7
 0.0284414110     2     4     3     8
 -0.0359423884     2     4     4     1
 -0.5516284002     2     4     4     2
 0.0655650280     2     4     4     6
 0.0401680320     2     4     4     9
 -0.0234892715     2     4     4    10
 0.0547418293     2     4     4    12
 0.0047474391     2     4     5     5
 -0.0077608774     2     4     5    11
 -0.0072450895     2     4     6     1
 -0.0332861904     2     4     6     2
 -0.0095677701     2     4     6     6
 0.0039342860     2     4     6     9
 0.0213894177     2     4     6    10
 0.0015631781     2     4     6    12
 -0.0002418753     2     4     7     3
 -0.0124969108     2     4     7     7
 -0.0024153336     2     4     7     8
 -0.0043870010     2     4     8     3
 -0.0082632786     2     4     8     7
 -0.0052295583     2     4     8     8
 -0.0079253174     2     4     9     1
 -0.0204027234     2     4     9     2
 0.0035920537     2     4     9     6
 -0.0253738934     2     4     9     9
 0.0053314305     2     4     9    10
 0.0029077001     2     4     9    12
 0.0223125994     2     4    10     1
 0.0977479534     2     4    10     2
 0.0032834292     2     4    10     6
 -0.0094001952     2     4    10     9
 0.0215198712     2     4    10    10
 0.0157768345     2     4    10    12
 -0.0053408609     2     4    11     5
 0.0121186650     2     4    11    11
 -0.0059283270     2     4    12     1
 -0.0039558865     2     4    12     2
 -0.0028081070     2     4    12     6
 0.0032295809     2     4    12     9
 0.0295857755     2     4    12    10
 -0.0150626449     2     4    12    12
 0.0059155295     2     5     1    11
 -0.0026995264     2     5     4    11
 -0.0411715968     2     5     5     1
 -0.5802580066     2     5     5     2
 -0.0047474391     2     5     5     4
 0.0625172245     2     5     5     6
 0.0243327972     2     5     5     9
 -0.0258496422     2     5     5    10
 0.0155728286     2     5     5    12
 0.0244257455     2     5     6    11
 -0.0060801787     2     5     9    11
 -0.0108934568     2     5    10    11
 0.0289006176     2     5    11     1
 0.1242289303     2     5    11     2
 0.0053408609     2     5    11     4
 -0.0008962542     2     5    11     6
 -0.0234892946     2     5    11     9
 -0.0013455666     2     5    11    10
 -0.0118119198     2     5    11    12
 -0.0011729639     2     5    12    11
 -0.1432487342     2     6     1     1
 -0.0014761612     2     6     1     2
 -0.0003916388     2     6     1     4
 -0.0003053824     2     6     1     9
 0.0014842569     2     6     1    10
 -0.0004795869     2     6     1    12
 -0.0656883539     2     6     3     3
 -0.0144913539     2     6     3     7
 -0.0029256938     2     6     3     8
 -0.0071393686     2     6     4     1
 -0.0332861904     2     6     4     2
 -0.0655650280     2     6     4     4
 0.0003545921     2     6     4     9
 0.0175500671     2     6     4    10
 0.0040533445     2     6     4    12
 -0.0625172245     2     6     5     5
 0.0244437518     2     6     5    11
 -0.0018002177     2     6     6     1
 -0.3010033987     2     6     6     2
 0.0095677701     2     6     6     4
 -0.0055885920     2     6     6     9
 0.0069106192     2     6     6    10
 -0.0048447861     2     6     6    12
 0.0191356710     2     6     7     3
 -0.0085730934     2     6     7     7
 -0.0133055458     2     6     7     8
 -0.0033874357     2     6     8     3
 -0.0077318554     2     6     8     7
 -0.0263375236     2     6     8     8
 -0.0021715002     2     6     9     1
 -0.0577810491     2     6     9     2
 -0.0035920537     2     6     9     4
 -0.0211841983     2     6     9     9
 -0.0005198084     2     6     9    10
 0.0037024308     2     6     9    12
 0.0052297600     2     6    10     1
 0.0524017892     2     6    10     2
 -0.0032834292     2     6    10     4
 -0.0018111400     2     6    10     9
 -0.0232506452     2     6    10    10
 0.0056254911     2     6    10    12
 0.0008962542     2     6    11     5
 -0.0368632353     2     6    11    11
 -0.0014856390     2     6    12     1
 -0.0291611457     2     6    12     2
 0.0028081070     2     6    12     4
 0.0034034365     2     6    12     9
 0.0029994695     2     6    12    10
 -0.0235605097     2     6    12    12
 0.0026226895     2     7     1     3
 -0.0004671998     2     7     1     8
 -0.0097819810     2     7     3     1
 -0.0701361698     2     7     3     2
 -0.0100514322     2     7     3     4
 0.0144913539     2     7     3     6
 0.0149328845     2     7     3     9
 -0.0034377924     2     7     3    10
 0.0041732492     2     7     3    12
 -0.0105197452     2     7     4     3
 0.0056599121     2     7     4     8
 0.0339625810     2     7     6     3
 -0.0055954977     2     7     6     8
 -0.0048976144     2     7     7     1
 -0.2841184231     2     7     7     2
 0.0124969108     2     7     7     4
 0.0085730934     2     7     7     6
 -0.0011958073     2     7     7     9
 -0.0004164385     2     7     7    10
 0.0018369835     2     7     7    12
 -0.0043240109     2     7     8     1
 -0.0606369637     2     7     8     2
 0.0082632786     2     7     8     4
 0.0077318554     2     7     8     6
 0.0024764197     2     7     8     9
 -0.0001130435     2     7     8    10
 -0.0002100522     2     7     8    12
 0.0161373413     2     7     9     3
 -0.0038778131     2     7     9     8
 -0.0032675850     2     7    10     3
 0.0039774667     2     7    10     8
 -0.0049534127     2     7    12     3
 -0.0017698854     2     7    12     8
 0.0032488129     2     8     1     3
 0.0004671998     2     8     1     7
 -0.0078682476     2     8     3     1
 -0.0215358749     2     8     3     2
 -0.0284414110     2     8     3     4
 0.0029256938     2     8     3     6
 0.0008854676     2     8     3     9
 0.0028921863     2     8     3    10
 0.0058200806     2     8     3    12
 -0.0332309148     2     8     4     3
 -0.0056599121     2     8     4     7
 -0.0001507340     2     8     6     3
 0.0055954977     2     8     6     7