&FCI NORB= 10,NELEC= 10,MS2=0,
 ORBSYM=1,1,1,1,1,1,1,1,1,1
 ISYM=1,
&END
 0.9847207033     1     1     2     2
 -0.0679997017     1     1     2     4
 -0.1165748012     1     1     2     6
 -0.0318697828     1     1     2     9
 0.1015397961     1     1     2    10
 0.8717347794     1     1     3     3
 -0.1334976091     1     1     3     7
 -0.0684604280     1     1     3     8
 -0.0679997017     1     1     4     2
 0.9518679761     1     1     4     4
 -0.0590301414     1     1     4     6
 0.1499046846     1     1     4     9
 0.1459134074     1     1     4    10
 0.9938599094     1     1     5     5
 -0.1165748012     1     1     6     2
 -0.0590301414     1     1     6     4
 0.3152220577     1     1     6     6
 -0.0074390606     1     1     6     9
 -0.1150711487     1     1     6    10
 -0.1334976091     1     1     7     3
 0.2836093889     1     1     7     7
 0.0650436628     1     1     7     8
 -0.0684604280     1     1     8     3
 0.0650436628     1     1     8     7
 0.3887833976     1     1     8     8
 -0.0318697828     1     1     9     2
 0.1499046846     1     1     9     4
 -0.0074390606     1     1     9     6
 0.3820792236     1     1     9     9
 0.0348759835     1     1     9    10
 0.1015397961     1     1    10     2
 0.1459134074     1     1    10     4
 -0.1150711487     1     1    10     6
 0.0348759835     1     1    10     9
 0.4564760992     1     1    10    10
 -0.9847207033     1     2     2     1
 0.0069534210     1     2     2     4
 -0.0009648717     1     2     2     6
 0.0031002097     1     2     2     9
 0.0033701645     1     2     2    10
 0.0309628457     1     2     3     3
 -0.0103757076     1     2     3     7
 -0.0083991104     1     2     3     8
 0.0679997017     1     2     4     1
 0.0358439752     1     2     4     4
 -0.0060204547     1     2     4     6
 0.0111745214     1     2     4     9
 0.0144351724     1     2     4    10
 0.0404094545     1     2     5     5
 0.1165748012     1     2     6     1
 -0.0056856391     1     2     6     4
 0.0014447629     1     2     6     6
 -0.0021603299     1     2     6     9
 -0.0033397168     1     2     6    10
 -0.0075118788     1     2     7     3
 0.0034378337     1     2     7     7
 0.0026974204     1     2     7     8
 -0.0054611534     1     2     8     3
 0.0023753059     1     2     8     7
 0.0019875110     1     2     8     8
 0.0318697828     1     2     9     1
 0.0080460519     1     2     9     4
 -0.0014858844     1     2     9     6
 0.0040169987     1     2     9     9
 0.0046985407     1     2     9    10
 -0.1015397961     1     2    10     1
 0.0116675063     1     2    10     4
 -0.0027517045     1     2    10     6
 0.0053402441     1     2    10     9
 0.0065047463     1     2    10    10
 -0.0021269439     1     3     2     7
 -0.0024323317     1     3     2     8
 -0.8717347794     1     3     3     1
 -0.0309628457     1     3     3     2
 0.0106060042     1     3     3     4
 0.0041677441     1     3     3     6
 0.0028616161     1     3     3     9
 0.0006473190     1     3     3    10
 -0.0010096957     1     3     4     7
 -0.0040549453     1     3     4     8
 -0.0018655353     1     3     6     7
 0.0004305716     1     3     6     8
 0.1334976091     1     3     7     1
 0.0075118788     1     3     7     2
 -0.0026832596     1     3     7     4
 -0.0035669441     1     3     7     6
 -0.0012170314     1     3     7     9
 0.0018606046     1     3     7    10
 0.0684604280     1     3     8     1
 0.0054611534     1     3     8     2
 -0.0017442172     1     3     8     4
 -0.0017000395     1     3     8     6
 0.0010633271     1     3     8     9
 0.0039939581     1     3     8    10
 -0.0009111554     1     3     9     7
 0.0000306267     1     3     9     8
 0.0014271069     1     3    10     7
 0.0018255113     1     3    10     8
 0.0679997017     1     4     2     1
 -0.0069534210     1     4     2     2
 0.0001921884     1     4     2     6
 0.0023017841     1     4     2     9
 0.0017087020     1     4     2    10
 -0.0106060042     1     4     3     3
 0.0018491523     1     4     3     7
 -0.0021987652     1     4     3     8
 -0.9518679761     1     4     4     1
 -0.0358439752     1     4     4     2
 0.0080951740     1     4     4     6
 0.0008219893     1     4     4     9
 -0.0100228589     1     4     4    10
 -0.0136490931     1     4     5     5
 0.0590301414     1     4     6     1
 0.0056856391     1     4     6     2
 -0.0032440711     1     4     6     6
 0.0014559225     1     4     6     9
 0.0035384404     1     4     6    10
 0.0026832596     1     4     7     3
 -0.0021029503     1     4     7     7
 -0.0009532685     1     4     7     8
 0.0017442172     1     4     8     3
 -0.0021641802     1     4     8     7
 -0.0012689472     1     4     8     8
 -0.1499046846     1     4     9     1
 -0.0080460519     1     4     9     2
 0.0041534400     1     4     9     6
 0.0009446804     1     4     9     9
 -0.0018384374     1     4     9    10
 -0.1459134074     1     4    10     1
 -0.0116675063     1     4    10     2
 0.0051352642     1     4    10     6
 0.0016936954     1     4    10     9
 -0.0067547626     1     4    10    10
 -0.9938599094     1     5     5     1
 -0.0404094545     1     5     5     2
 0.0136490931     1     5     5     4
 0.0078099636     1     5     5     6
 0.0075450598     1     5     5     9
 -0.0080427560     1     5     5    10
 0.1165748012     1     6     2     1
 0.0009648717     1     6     2     2
 -0.0001921884     1     6     2     4
 -0.0006740779     1     6     2     9
 -0.0006009684     1     6     2    10
 -0.0041677441     1     6     3     3
 0.0016629259     1     6     3     7
 0.0021030753     1     6     3     8
 0.0590301414     1     6     4     1
 0.0060204547     1     6     4     2
 -0.0080951740     1     6     4     4
 -0.0026180957     1     6     4     9
 -0.0015874389     1     6     4    10
 -0.0078099636     1     6     5     5
 -0.3152220577     1     6     6     1
 -0.0014447629     1     6     6     2
 0.0032440711     1     6     6     4
 0.0008466980     1     6     6     9
 0.0008125423     1     6     6    10
 0.0035669441     1     6     7     3
 -0.0011632711     1     6     7     7
 -0.0009971470     1     6     7     8
 0.0017000395     1     6     8     3
 -0.0003716120     1     6     8     7
 -0.0003264480     1     6     8     8
 0.0074390606     1     6     9     1
 0.0014858844     1     6     9     2
 -0.0041534400     1     6     9     4
 -0.0017582763     1     6     9     9
 -0.0016903358     1     6     9    10
 0.1150711487     1     6    10     1
 0.0027517045     1     6    10     2
 -0.0051352642     1     6    10     4
 -0.0022865274     1     6    10     9
 -0.0010655074     1     6    10    10
 0.0021269439     1     7     2     3
 0.0003115934     1     7     2     8
 0.1334976091     1     7     3     1
 0.0103757076     1     7     3     2
 -0.0018491523     1     7     3     4
 -0.0016629259     1     7     3     6
 -0.0003690129     1     7     3     9
 0.0003847023     1     7     3    10
 0.0010096957     1     7     4     3
 0.0012110880     1     7     4     8
 0.0018655353     1     7     6     3
 -0.0006265306     1     7     6     8
 -0.2836093889     1     7     7     1
 -0.0034378337     1     7     7     2
 0.0021029503     1     7     7     4
 0.0011632711     1     7     7     6
 0.0007985376     1     7     7     9
 -0.0003340819     1     7     7    10
 -0.0650436628     1     7     8     1
 -0.0023753059     1     7     8     2
 0.0021641802     1     7     8     4
 0.0003716120     1     7     8     6
 0.0001348671     1     7     8     9
 -0.0008147042     1     7     8    10
 0.0009111554     1     7     9     3
 -0.0002555243     1     7     9     8
 -0.0014271069     1     7    10     3
 -0.0002802017     1     7    10     8
 0.0024323317     1     8     2     3
 -0.0003115934     1     8     2     7
 0.0684604280     1     8     3     1
 0.0083991104     1     8     3     2
 0.0021987652     1     8     3     4
 -0.0021030753     1     8     3     6
 0.0009241521     1     8     3     9
 0.0021204737     1     8     3    10
 0.0040549453     1     8     4     3
 -0.0012110880     1     8     4     7
 -0.0004305716     1     8     6     3
 0.0006265306     1     8     6     7
 -0.0650436628     1     8     7     1
 -0.0026974204     1     8     7     2
 0.0009532685     1     8     7     4
 0.0009971470     1     8     7     6
 0.0003879940     1     8     7     9
 -0.0005345078     1     8     7    10
 -0.3887833976     1     8     8     1
 -0.0019875110     1     8     8     2
 0.0012689472     1     8     8     4
 0.0003264480     1     8     8     6
 -0.0000331674     1     8     8     9
 -0.0007657380     1     8     8    10
 -0.0000306267     1     8     9     3
 0.0002555243     1     8     9     7
 -0.0018255113     1     8    10     3
 0.0002802017     1     8    10     7
 0.0318697828     1     9     2     1
 -0.0031002097     1     9     2     2
 -0.0023017841     1     9     2     4
 0.0006740779     1     9     2     6
 -0.0006644314     1     9     2    10
 -0.0028616161     1     9     3     3
 0.0003690129     1     9     3     7
 -0.0009241521     1     9     3     8
 -0.1499046846     1     9     4     1
 -0.0111745214     1     9     4     2
 -0.0008219893     1     9     4     4
 0.0026180957     1     9     4     6
 -0.0034751655     1     9     4    10
 -0.0075450598     1     9     5     5
 0.0074390606     1     9     6     1
 0.0021603299     1     9     6     2
 -0.0014559225     1     9     6     4
 -0.0008466980     1     9     6     6
 0.0005979459     1     9     6    10
 0.0012170314     1     9     7     3
 -0.0007985376     1     9     7     7
 -0.0003879940     1     9     7     8
 -0.0010633271     1     9     8     3
 -0.0001348671     1     9     8     7
 0.0000331674     1     9     8     8
 -0.3820792236     1     9     9     1
 -0.0040169987     1     9     9     2
 -0.0009446804     1     9     9     4
 0.0017582763     1     9     9     6
 -0.0012750615     1     9     9    10
 -0.0348759835     1     9    10     1
 -0.0053402441     1     9    10     2
 -0.0016936954     1     9    10     4
 0.0022865274     1     9    10     6
 -0.0032916147     1     9    10    10
 -0.1015397961     1    10     2     1
 -0.0033701645     1    10     2     2
 -0.0017087020     1    10     2     4
 0.0006009684     1    10     2     6
 0.0006644314     1    10     2     9
 -0.0006473190     1    10     3     3
 -0.0003847023     1    10     3     7
 -0.0021204737     1    10     3     8
 -0.1459134074     1    10     4     1
 -0.0144351724     1    10     4     2
 0.0100228589     1    10     4     4
 0.0015874389     1    10     4     6
 0.0034751655     1    10     4     9
 0.0080427560     1    10     5     5
 0.1150711487     1    10     6     1
 0.0033397168     1    10     6     2
 -0.0035384404     1    10     6     4
 -0.0008125423     1    10     6     6
 -0.0005979459     1    10     6     9
 -0.0018606046     1    10     7     3
 0.0003340819     1    10     7     7
 0.0005345078     1    10     7     8
 -0.0039939581     1    10     8     3
 0.0008147042     1    10     8     7
 0.0007657380     1    10     8     8
 -0.0348759835     1    10     9     1
 -0.0046985407     1    10     9     2
 0.0018384374     1    10     9     4
 0.0016903358     1    10     9     6
 0.0012750615     1    10     9     9
 -0.4564760992     1    10    10     1
 -0.0065047463     1    10    10     2
 0.0067547626     1    10    10     4
 0.0010655074     1    10    10     6
 0.0032916147     1    10    10     9
 -0.9847207033     2     1     1     2
 0.0679997017     2     1     1     4
 0.1165748012     2     1     1     6
 0.0318697828     2     1     1     9
 -0.1015397961     2     1     1    10
 0.0309628457     2     1     3     3
 -0.0075118788     2     1     3     7
 -0.0054611534     2     1     3     8
 0.0069534210     2     1     4     2
 0.0358439752     2     1     4     4
 -0.0056856391     2     1     4     6
 0.0080460519     2     1     4     9
 0.0116675063     2     1     4    10
 0.0404094545     2     1     5     5
 -0.0009648717     2     1     6     2
 -0.0060204547     2     1     6     4
 0.0014447629     2     1     6     6
 -0.0014858844     2     1     6     9
 -0.0027517045     2     1     6    10
 -0.0103757076     2     1     7     3
 0.0034378337     2     1     7     7
 0.0023753059     2     1     7     8
 -0.0083991104     2     1     8     3
 0.0026974204     2     1     8     7
 0.0019875110     2     1     8     8
 0.0031002097     2     1     9     2
 0.0111745214     2     1     9     4
 -0.0021603299     2     1     9     6
 0.0040169987     2     1     9     9
 0.0053402441     2     1     9    10
 0.0033701645     2     1    10     2
 0.0144351724     2     1    10     4
 -0.0033397168     2     1    10     6
 0.0046985407     2     1    10     9
 0.0065047463     2     1    10    10
 0.9847207033     2     2     1     1
 -0.0069534210     2     2     1     4
 0.0009648717     2     2     1     6
 -0.0031002097     2     2     1     9
 -0.0033701645     2     2     1    10
 0.5285706510     2     2     3     3
 -0.0554666140     2     2     3     7
 -0.0124363082     2     2     3     8
 -0.0069534210     2     2     4     1
 0.5510683034     2     2     4     4
 -0.0255906539     2     2     4     6
 0.0612197793     2     2     4     9
 0.0551476447     2     2     4    10
 0.5761359220     2     2     5     5
 0.0009648717     2     2     6     1
 -0.0255906539     2     2     6     4
 0.2802813690     2     2     6     6
 -0.0080155359     2     2     6     9
 -0.0686538848     2     2     6    10
 -0.0554666140     2     2     7     3
 0.2555821872     2     2     7     7
 0.0429103660     2     2     7     8
 -0.0124363082     2     2     8     3
 0.0429103660     2     2     8     7
 0.3578385337     2     2     8     8
 -0.0031002097     2     2     9     1
 0.0612197793     2     2     9     4
 -0.0080155359     2     2     9     6
 0.3320688868     2     2     9     9
 -0.0014278701     2     2     9    10
 -0.0033701645     2     2    10     1
 0.0551476447     2     2    10     4
 -0.0686538848     2     2    10     6
 -0.0014278701     2     2    10     9
 0.3781480313     2     2    10    10
 0.0021269439     2     3     1     7
 0.0024323317     2     3     1     8
 -0.0309628457     2     3     3     1
 -0.5285706510     2     3     3     2
 0.0021739056     2     3     3     4
 0.0548584362     2     3     3     6
 0.0204586238     2     3     3     9
 -0.0623212283     2     3     3    10
 0.0080657906     2     3     4     7
 0.0276205849     2     3     4     8
 0.0298112202     2     3     6     7
 -0.0004407586     2     3     6     8
 0.0103757076     2     3     7     1
 0.0554666140     2     3     7     2
 0.0013069160     2     3     7     4
 0.0196138096     2     3     7     6
 0.0015458871     2     3     7     9
 -0.0045438079     2     3     7    10
 0.0083991104     2     3     8     1
 0.0124363082     2     3     8     2
 0.0055140119     2     3     8     4
 -0.0018329170     2     3     8     6
 -0.0150379538     2     3     8     9
 -0.0280233936     2     3     8    10
 0.0055529092     2     3     9     7
 -0.0119397529     2     3     9     8
 -0.0158506517     2     3    10     7
 -0.0267651617     2     3    10     8
 -0.0679997017     2     4     1     1
 0.0069534210     2     4     1     2
 -0.0001921884     2     4     1     6
 -0.0023017841     2     4     1     9
 -0.0017087020     2     4     1    10
 -0.0021739056     2     4     3     3
 0.0069327679     2     4     3     7
 0.0223511198     2     4     3     8
 -0.0358439752     2     4     4     1
 -0.5510683034     2     4     4     2
 0.0535954739     2     4     4     6
 0.0055939091     2     4     4     9
 -0.0395044314     2     4     4    10
 -0.0046652752     2     4     5     5
 0.0060204547     2     4     6     1
 0.0255906539     2     4     6     2
 0.0096701424     2     4     6     6
 -0.0196458497     2     4     6     9
 -0.0079149701     2     4     6    10
 -0.0013069160     2     4     7     3
 0.0112498527     2     4     7     7
 0.0055115548     2     4     7     8
 -0.0055140119     2     4     8     3
 0.0096151721     2     4     8     7
 -0.0009328090     2     4     8     8
 -0.0111745214     2     4     9     1
 -0.0612197793     2     4     9     2
 -0.0080131203     2     4     9     6
 -0.0102227711     2     4     9     9
 -0.0232392387     2     4     9    10
 -0.0144351724     2     4    10     1
 -0.0551476447     2     4    10     2
 -0.0015940754     2     4    10     6
 -0.0116998048     2     4    10     9
 0.0098564819     2     4    10    10
 -0.0404094545     2     5     5     1
 -0.5761359220     2     5     5     2
 0.0046652752     2     5     5     4
 0.0535599072     2     5     5     6
 -0.0007418896     2     5     5     9
 -0.0302592410     2     5     5    10
 -0.1165748012     2     6     1     1
 -0.0009648717     2     6     1     2
 0.0001921884     2     6     1     4
 0.0006740779     2     6     1     9
 0.0006009684     2     6     1    10
 -0.0548584362     2     6     3     3
 0.0094105741     2     6     3     7
 0.0007809257     2     6     3     8
 0.0056856391     2     6     4     1
 0.0255906539     2     6     4     2
 -0.0535954739     2     6     4     4
 -0.0106364799     2     6     4     9
 -0.0059171952     2     6     4    10
 -0.0535599072     2     6     5     5
 -0.0014447629     2     6     6     1
 -0.2802813690     2     6     6     2
 -0.0096701424     2     6     6     4
 0.0017062645     2     6     6     9
 0.0049457164     2     6     6    10
 -0.0196138096     2     6     7     3
 -0.0052678050     2     6     7     7
 -0.0078050454     2     6     7     8
 0.0018329170     2     6     8     3
 -0.0043255004     2     6     8     7
 -0.0174796038     2     6     8     8
 0.0021603299     2     6     9     1
 0.0080155359     2     6     9     2
 0.0080131203     2     6     9     4
 -0.0133015469     2     6     9     9
 0.0011293687     2     6     9    10
 0.0033397168     2     6    10     1
 0.0686538848     2     6    10     2
 0.0015940754     2     6    10     4
 -0.0001025764     2     6    10     9
 -0.0140424202     2     6    10    10
 -0.0021269439     2     7     1     3
 -0.0003115934     2     7     1     8
 0.0075118788     2     7     3     1
 0.0554666140     2     7     3     2
 -0.0069327679     2     7     3     4
 -0.0094105741     2     7     3     6
 -0.0035071637     2     7     3     9
 0.0100733746     2     7     3    10
 -0.0080657906     2     7     4     3
 -0.0037779332     2     7     4     8
 -0.0298112202     2     7     6     3
 -0.0034878092     2     7     6     8
 -0.0034378337     2     7     7     1
 -0.2555821872     2     7     7     2
 -0.0112498527     2     7     7     4
 0.0052678050     2     7     7     6
 -0.0006213130     2     7     7     9
 0.0009861217     2     7     7    10
 -0.0026974204     2     7     8     1
 -0.0429103660     2     7     8     2
 -0.0096151721     2     7     8     4
 0.0043255004     2     7     8     6
 0.0015402099     2     7     8     9
 -0.0012985932     2     7     8    10
 -0.0055529092     2     7     9     3
 0.0018105756     2     7     9     8
 0.0158506517     2     7    10     3
 0.0037573040     2     7    10     8
 -0.0024323317     2     8     1     3
 0.0003115934     2     8     1     7
 0.0054611534     2     8     3     1
 0.0124363082     2     8     3     2
 -0.0223511198     2     8     3     4
 -0.0007809257     2     8     3     6
 -0.0022822014     2     8     3     9
 -0.0018890051     2     8     3    10
 -0.0276205849     2     8     4     3
 0.0037779332     2     8     4     7
 0.0004407586     2     8     6     3
 0.0034878092     2     8     6     7
 -0.0023753059     2     8     7     1
 -0.0429103660     2     8     7     2
 -0.0055115548     2     8     7     4
 0.0078050454     2     8     7     6
 -0.0003685287     2     8     7     9
 -0.0050789145     2     8     7    10
 -0.0019875110     2     8     8     1
 -0.3578385337     2     8     8     2
 0.0009328090     2     8     8     4
 0.0174796038     2     8     8     6
 0.0015536599     2     8     8     9
 -0.0087140096     2     8     8    10
 0.0119397529     2     8     9     3
 -0.0018105756     2     8     9     7
 0.0267651617     2     8    10     3
 -0.0037573040     2     8    10     7
 -0.0318697828     2     9     1     1
 0.0031002097     2     9     1     2
 0.0023017841     2     9     1     4
 -0.0006740779     2     9     1     6
 0.0006644314     2     9     1    10
 -0.0204586238     2     9     3     3
 0.0035071637     2     9     3     7
 0.0022822014     2     9     3     8
 -0.0080460519     2     9     4     1
 -0.0612197793     2     9     4     2
 -0.0055939091     2     9     4     4
 0.0106364799     2     9     4     6
 -0.0100676849     2     9     4    10
 0.0007418896     2     9     5     5
 0.0014858844     2     9     6     1
 0.0080155359     2     9     6     2
 0.0196458497     2     9     6     4
 -0.0017062645     2     9     6     6
 0.0012486230     2     9     6    10
 -0.0015458871     2     9     7     3
 0.0006213130     2     9     7     7
 0.0003685287     2     9     7     8
 0.0150379538     2     9     8     3
 -0.0015402099     2     9     8     7
 -0.0015536599     2     9     8     8
 -0.0040169987     2     9     9     1
 -0.3320688868     2     9     9     2
 0.0102227711     2     9     9     4
 0.0133015469     2     9     9     6
 -0.0074366890     2     9     9    10
 -0.0046985407     2     9    10     1
 0.0014278701     2     9    10     2
 0.0116998048     2     9    10     4
 0.0001025764     2     9    10     6
 -0.0015915258     2     9    10    10
 0.1015397961     2    10     1     1
 0.0033701645     2    10     1     2
 0.0017087020     2    10     1     4
 -0.0006009684     2    10     1     6
 -0.0006644314     2    10     1     9
 0.0623212283     2    10     3     3
 -0.0100733746     2    10     3     7
 0.0018890051     2    10     3     8
 -0.0116675063     2    10     4     1
 -0.0551476447     2    10     4     2
 0.0395044314     2    10     4     4
 0.0059171952     2    10     4     6
 0.0100676849     2    10     4     9
 0.0302592410     2    10     5     5
 0.0027517045     2    10     6     1
 0.0686538848     2    10     6     2
 0.0079149701     2    10     6     4
 -0.0049457164     2    10     6     6
 -0.0012486230     2    10     6     9
 0.0045438079     2    10     7     3
 -0.0009861217     2    10     7     7
 0.0050789145     2    10     7     8
 0.0280233936     2    10     8     3
 0.0012985932     2    10     8     7
 0.0087140096     2    10     8     8
 -0.0053402441     2    10     9     1
 0.0014278701     2    10     9     2
 0.0232392387     2    10     9     4
 -0.0011293687     2    10     9     6
 0.0074366890     2    10     9     9
 -0.0065047463     2    10    10     1
 -0.3781480313     2    10    10     2
 -0.0098564819     2    10    10     4
 0.0140424202     2    10    10     6
 0.0015915258     2    10    10     9
 -0.8717347794     3     1     1     3
 0.1334976091     3     1     1     7
 0.0684604280     3     1     1     8
 -0.0309628457     3     1     2     3
 0.0075118788     3     1     2     7
 0.0054611534     3     1     2     8
 0.0106060042     3     1     4     3
 -0.0026832596     3     1     4     7
 -0.0017442172     3     1     4     8
 0.0041677441     3     1     6     3
 -0.0035669441     3     1     6     7
 -0.0017000395     3     1     6     8
 -0.0021269439     3     1     7     2
 -0.0010096957     3     1     7     4
 -0.0018655353     3     1     7     6
 -0.0009111554     3     1     7     9
 0.0014271069     3     1     7    10
 -0.0024323317     3     1     8     2
 -0.0040549453     3     1     8     4
 0.0004305716     3     1     8     6
 0.0000306267     3     1     8     9
 0.0018255113     3     1     8    10
 0.0028616161     3     1     9     3
 -0.0012170314     3     1     9     7
 0.0010633271     3     1     9     8
 0.0006473190     3     1    10     3
 0.0018606046     3     1    10     7
 0.0039939581     3     1    10     8
 -0.0309628457     3     2     1     3
 0.0103757076     3     2     1     7
 0.0083991104     3     2     1     8
 -0.5285706510     3     2     2     3
 0.0554666140     3     2     2     7
 0.0124363082     3     2     2     8
 0.0021739056     3     2     4     3
 0.0013069160     3     2     4     7
 0.0055140119     3     2     4     8
 0.0548584362     3     2     6     3
 0.0196138096     3     2     6     7
 -0.0018329170     3     2     6     8
 0.0021269439     3     2     7     1
 0.0080657906     3     2     7     4
 0.0298112202     3     2     7     6
 0.0055529092     3     2     7     9
 -0.0158506517     3     2     7    10
 0.0024323317     3     2     8     1
 0.0276205849     3     2     8     4
 -0.0004407586     3     2     8     6
 -0.0119397529     3     2     8     9
 -0.0267651617     3     2     8    10
 0.0204586238     3     2     9     3
 0.0015458871     3     2     9     7
 -0.0150379538     3     2     9     8
 -0.0623212283     3     2    10     3
 -0.0045438079     3     2    10     7
 -0.0280233936     3     2    10     8
 0.8717347794     3     3     1     1
 0.0309628457     3     3     1     2
 -0.0106060042     3     3     1     4
 -0.0041677441     3     3     1     6
 -0.0028616161     3     3     1     9
 -0.0006473190     3     3     1    10
 0.0309628457     3     3     2     1
 0.5285706510     3     3     2     2
 -0.0021739056     3     3     2     4
 -0.0548584362     3     3     2     6
 -0.0204586238     3     3     2     9
 0.0623212283     3     3     2    10
 -0.0106060042     3     3     4     1
 -0.0021739056     3     3     4     2
 0.5617736938     3     3     4     4
 -0.0278570936     3     3     4     6
 0.0616889572     3     3     4     9
 0.0604227956     3     3     4    10
 0.5826710515     3     3     5     5
 -0.0041677441     3     3     6     1
 -0.0548584362     3     3     6     2
 -0.0278570936     3     3     6     4
 0.2837166500     3     3     6     6
 -0.0072585119     3     3     6     9
 -0.0711663627     3     3     6    10
 0.2457707059     3     3     7     7
 0.0336231930     3     3     7     8
 0.0336231930     3     3     8     7
 0.3401032965     3     3     8     8
 -0.0028616161     3     3     9     1
 -0.0204586238     3     3     9     2
 0.0616889572     3     3     9     4
 -0.0072585119     3     3     9     6
 0.3213398236     3     3     9     9
 0.0004931728     3     3     9    10
 -0.0006473190     3     3    10     1
 0.0623212283     3     3    10     2
 0.0604227956     3     3    10     4
 -0.0711663627     3     3    10     6
 0.0004931728     3     3    10     9
 0.3697123854     3     3    10    10
 0.0106060042     3     4     1     3
 -0.0018491523     3     4     1     7
 0.0021987652     3     4     1     8
 0.0021739056     3     4     2     3
 -0.0069327679     3     4     2     7
 -0.0223511198     3     4     2     8
 -0.5617736938     3     4     4     3
 0.0667843082     3     4     4     7
 0.0317880113     3     4     4     8
 0.0278570936     3     4     6     3
 0.0007501532     3     4     6     7
 -0.0009172850     3     4     6     8
 0.0010096957     3     4     7     1
 -0.0080657906     3     4     7     2
 0.0067588153     3     4     7     6
 -0.0036030413     3     4     7     9
 -0.0011927305     3     4     7    10
 0.0040549453     3     4     8     1
 -0.0276205849     3     4     8     2
 0.0011972453     3     4     8     6
 -0.0065223043     3     4     8     9
 0.0052251530     3     4     8    10
 -0.0616889572     3     4     9     3
 0.0133132961     3     4     9     7
 0.0100617944     3     4     9     8
 -0.0604227956     3     4    10     3
 0.0087555515     3     4    10     7
 -0.0021886458     3     4    10     8
 -0.5826710515     3     5     5     3
 0.0704828352     3     5     5     7
 0.0246370374     3     5     5     8
 0.0041677441     3     6     1     3
 -0.0016629259     3     6     1     7
 -0.0021030753     3     6     1     8
 0.0548584362     3     6     2     3
 -0.0094105741     3     6     2     7
 -0.0007809257     3     6     2     8
 0.0278570936     3     6     4     3
 -0.0053396796     3     6     4     7
 -0.0017353936     3     6     4     8
 -0.2837166500     3     6     6     3
 0.0207868376     3     6     6     7
 -0.0101899794     3     6     6     8
 0.0018655353     3     6     7     1
 -0.0298112202     3     6     7     2
 -0.0067588153     3     6     7     4
 -0.0091419848     3     6     7     9
 0.0193043411     3     6     7    10
 -0.0004305716     3     6     8     1
 0.0004407586     3     6     8     2
 -0.0011972453     3     6     8     4
 -0.0045212010     3     6     8     9
 -0.0074250029     3     6     8    10
 0.0072585119     3     6     9     3
 0.0035077623     3     6     9     7
 0.0065362486     3     6     9     8
 0.0711663627     3     6    10     3
 -0.0112368322     3     6    10     7
 -0.0032500505     3     6    10     8
 -0.1334976091     3     7     1     1
 -0.0103757076     3     7     1     2
 0.0018491523     3     7     1     4
 0.0016629259     3     7     1     6
 0.0003690129     3     7     1     9
 -0.0003847023     3     7     1    10
 -0.0075118788     3     7     2     1
 -0.0554666140     3     7     2     2
 0.0069327679     3     7     2     4
 0.0094105741     3     7     2     6
 0.0035071637     3     7     2     9
 -0.0100733746     3     7     2    10
 0.0026832596     3     7     4     1
 -0.0013069160     3     7     4     2
 -0.0667843082     3     7     4     4
 0.0053396796     3     7     4     6
 -0.0159065222     3     7     4     9
 -0.0086756834     3     7     4    10
 -0.0704828352     3     7     5     5
 0.0035669441     3     7     6     1
 -0.0196138096     3     7     6     2