&FCI NORB= 12,NELEC= 10,MS2=0,
 ORBSYM=1,1,1,1,1,1,1,1,1,1,1,1
 ISYM=1,
&END
 0.9830572655     1     1     2     2
 0.0727738665     1     1     2     4
 -0.1805248570     1     1     2     6
 0.1464227358     1     1     2     9
 -0.0172404574     1     1     2    10
 0.8566221712     1     1     3     3
 -0.2256301236     1     1     3     7
 0.1507739012     1     1     3     8
 -0.3023629597     1     1     3    12
 0.0727738665     1     1     4     2
 0.9538280568     1     1     4     4
 0.1037245426     1     1     4     6
 -0.1557770591     1     1     4     9
 -0.3577032800     1     1     4    10
 1.0082603489     1     1     5     5
 0.4530586449     1     1     5    11
 -0.1805248570     1     1     6     2
 0.1037245426     1     1     6     4
 0.3990704955     1     1     6     6
 -0.1605447458     1     1     6     9
 -0.0848416446     1     1     6    10
 -0.2256301236     1     1     7     3
 0.3924304441     1     1     7     7
 -0.1544031704     1     1     7     8
 0.2065852725     1     1     7    12
 0.1507739012     1     1     8     3
 -0.1544031704     1     1     8     7
 0.5538742915     1     1     8     8
 -0.1089800768     1     1     8    12
 0.1464227358     1     1     9     2
 -0.1557770591     1     1     9     4
 -0.1605447458     1     1     9     6
 0.5746014736     1     1     9     9
 0.1223778328     1     1     9    10
 -0.0172404574     1     1    10     2
 -0.3577032800     1     1    10     4
 -0.0848416446     1     1    10     6
 0.1223778328     1     1    10     9
 0.7946279150     1     1    10    10
 0.4530586449     1     1    11     5
 0.9484047051     1     1    11    11
 -0.3023629597     1     1    12     3
 0.2065852725     1     1    12     7
 -0.1089800768     1     1    12     8
 0.7471774356     1     1    12    12
 -0.9830572655     1     2     2     1
 -0.0068298986     1     2     2     4
 -0.0025678217     1     2     2     6
 0.0044766974     1     2     2     9
 0.0089713253     1     2     2    10
 0.0297628452     1     2     3     3
 -0.0165378379     1     2     3     7
 0.0165301021     1     2     3     8
 -0.0333017671     1     2     3    12
 -0.0727738665     1     2     4     1
 0.0355435218     1     2     4     4
 0.0096167100     1     2     4     6
 -0.0169357064     1     2     4     9
 -0.0358937423     1     2     4    10
 0.0412361002     1     2     5     5
 0.0479536548     1     2     5    11
 0.1805248570     1     2     6     1
 0.0096185320     1     2     6     4
 0.0026059440     1     2     6     6
 -0.0049224079     1     2     6     9
 -0.0101920775     1     2     6    10
 -0.0130871972     1     2     7     3
 0.0073644445     1     2     7     7
 -0.0074357477     1     2     7     8
 0.0153058012     1     2     7    12
 0.0116273675     1     2     8     3
 -0.0064802654     1     2     8     7
 0.0061624047     1     2     8     8
 -0.0127294636     1     2     8    12
 -0.1464227358     1     2     9     1
 -0.0142659693     1     2     9     4
 -0.0039718746     1     2     9     6
 0.0067896562     1     2     9     9
 0.0158226285     1     2     9    10
 0.0172404574     1     2    10     1
 -0.0238548737     1     2    10     4
 -0.0061651244     1     2    10     6
 0.0119836643     1     2    10     9
 0.0266654814     1     2    10    10
 0.0316373614     1     2    11     5
 0.0405111496     1     2    11    11
 -0.0204201549     1     2    12     3
 0.0119079321     1     2    12     7
 -0.0113327823     1     2    12     8
 0.0253689864     1     2    12    12
 -0.0032022964     1     3     2     7
 0.0047145978     1     3     2     8
 -0.0124052351     1     3     2    12
 -0.8566221712     1     3     3     1
 -0.0297628452     1     3     3     2
 -0.0103491984     1     3     3     4
 0.0048153902     1     3     3     6
 0.0007078879     1     3     3     9
 0.0050800904     1     3     3    10
 0.0017675063     1     3     4     7
 -0.0059921045     1     3     4     8
 -0.0022333397     1     3     4    12
 -0.0025005945     1     3     6     7
 -0.0003653300     1     3     6     8
 -0.0017619129     1     3     6    12
 0.2256301236     1     3     7     1
 0.0130871972     1     3     7     2
 0.0044923770     1     3     7     4
 -0.0061404491     1     3     7     6
 0.0033738121     1     3     7     9
 -0.0010232396     1     3     7    10
 -0.1507739012     1     3     8     1
 -0.0116273675     1     3     8     2
 -0.0035522234     1     3     8     4
 0.0048195590     1     3     8     6
 -0.0088444827     1     3     8     9
 -0.0032359185     1     3     8    10
 0.0022057930     1     3     9     7
 -0.0048613067     1     3     9     8
 0.0053334309     1     3     9    12
 -0.0011319500     1     3    10     7
 0.0021518745     1     3    10     8
 -0.0041239403     1     3    10    12
 0.3023629597     1     3    12     1
 0.0204201549     1     3    12     2
 0.0072545547     1     3    12     4
 -0.0082056469     1     3    12     6
 0.0059250197     1     3    12     9
 -0.0078507825     1     3    12    10
 -0.0727738665     1     4     2     1
 0.0068298986     1     4     2     2
 -0.0001493466     1     4     2     6
 -0.0024676567     1     4     2     9
 -0.0114795548     1     4     2    10
 0.0103491984     1     4     3     3
 -0.0027661131     1     4     3     7
 -0.0023494808     1     4     3     8
 -0.0095707849     1     4     3    12
 -0.9538280568     1     4     4     1
 -0.0355435218     1     4     4     2
 0.0110022210     1     4     4     6
 -0.0129659111     1     4     4     9
 -0.0061370243     1     4     4    10
 0.0139475610     1     4     5     5
 0.0153200019     1     4     5    11
 -0.1037245426     1     4     6     1
 -0.0096185320     1     4     6     2
 0.0056458199     1     4     6     6
 -0.0052158293     1     4     6     9
 -0.0023207452     1     4     6    10
 -0.0044923770     1     4     7     3
 0.0038784376     1     4     7     7
 -0.0016849420     1     4     7     8
 0.0067467762     1     4     7    12
 0.0035522234     1     4     8     3
 -0.0040524285     1     4     8     7
 0.0061652579     1     4     8     8
 -0.0107327913     1     4     8    12
 0.1557770591     1     4     9     1
 0.0142659693     1     4     9     2
 -0.0070488373     1     4     9     6
 0.0111207739     1     4     9     9
 -0.0002096261     1     4     9    10
 0.3577032800     1     4    10     1
 0.0238548737     1     4    10     2
 -0.0122388899     1     4    10     6
 0.0104255183     1     4    10     9
 0.0046171882     1     4    10    10
 0.0108817350     1     4    11     5
 0.0136122323     1     4    11    11
 -0.0072545547     1     4    12     3
 0.0035815751     1     4    12     7
 -0.0028495207     1     4    12     8
 0.0056905605     1     4    12    12
 0.0156748539     1     5     2    11
 0.0042875637     1     5     4    11
 -1.0082603489     1     5     5     1
 -0.0412361002     1     5     5     2
 -0.0139475610     1     5     5     4
 0.0102695225     1     5     5     6
 -0.0123984984     1     5     5     9
 0.0092853989     1     5     5    10
 0.0002854443     1     5     6    11
 0.0047071378     1     5     9    11
 -0.0024764397     1     5    10    11
 -0.4530586449     1     5    11     1
 -0.0316373614     1     5    11     2
 -0.0108817350     1     5    11     4
 0.0131181895     1     5    11     6
 -0.0108233449     1     5    11     9
 0.0078057595     1     5    11    10
 0.1805248570     1     6     2     1
 0.0025678217     1     6     2     2
 0.0001493466     1     6     2     4
 -0.0009422514     1     6     2     9
 -0.0038506473     1     6     2    10
 -0.0048153902     1     6     3     3
 0.0036428533     1     6     3     7
 -0.0051879965     1     6     3     8
 0.0065278598     1     6     3    12
 -0.1037245426     1     6     4     1
 -0.0096167100     1     6     4     2
 -0.0110022210     1     6     4     4
 0.0018916746     1     6     4     9
 0.0099731311     1     6     4    10
 -0.0102695225     1     6     5     5
 -0.0126469414     1     6     5    11
 -0.3990704955     1     6     6     1
 -0.0026059440     1     6     6     2
 -0.0056458199     1     6     6     4
 0.0013467858     1     6     6     9
 0.0051260368     1     6     6    10
 0.0061404491     1     6     7     3
 -0.0029093557     1     6     7     7
 0.0034339595     1     6     7     8
 -0.0063732012     1     6     7    12
 -0.0048195590     1     6     8     3
 0.0020194810     1     6     8     7
 -0.0012160200     1     6     8     8
 0.0034159569     1     6     8    12
 0.1605447458     1     6     9     1
 0.0039718746     1     6     9     2
 0.0070488373     1     6     9     4
 -0.0002553627     1     6     9     9
 -0.0075540796     1     6     9    10
 0.0848416446     1     6    10     1
 0.0061651244     1     6    10     2
 0.0122388899     1     6    10     4
 -0.0032890391     1     6    10     9
 -0.0116607669     1     6    10    10
 -0.0131181895     1     6    11     5
 -0.0158214855     1     6    11    11
 0.0082056469     1     6    12     3
 -0.0047084768     1     6    12     7
 0.0047123365     1     6    12     8
 -0.0103426609     1     6    12    12
 0.0032022964     1     7     2     3
 -0.0009352797     1     7     2     8
 0.0031942233     1     7     2    12
 0.2256301236     1     7     3     1
 0.0165378379     1     7     3     2
 0.0027661131     1     7     3     4
 -0.0036428533     1     7     3     6
 0.0011718351     1     7     3     9
 0.0000781960     1     7     3    10
 -0.0017675063     1     7     4     3
 0.0023541775     1     7     4     8
 0.0030685377     1     7     4    12
 0.0025005945     1     7     6     3
 0.0014155372     1     7     6     8
 -0.0016504443     1     7     6    12
 -0.3924304441     1     7     7     1
 -0.0073644445     1     7     7     2
 -0.0038784376     1     7     7     4
 0.0029093557     1     7     7     6
 -0.0012249334     1     7     7     9
 0.0018575927     1     7     7    10
 0.1544031704     1     7     8     1
 0.0064802654     1     7     8     2
 0.0040524285     1     7     8     4
 -0.0020194810     1     7     8     6
 0.0036936351     1     7     8     9
 -0.0002940240     1     7     8    10
 -0.0022057930     1     7     9     3
 0.0014529674     1     7     9     8
 -0.0004937561     1     7     9    12
 0.0011319500     1     7    10     3
 -0.0005847526     1     7    10     8
 0.0009849473     1     7    10    12
 -0.2065852725     1     7    12     1
 -0.0119079321     1     7    12     2
 -0.0035815751     1     7    12     4
 0.0047084768     1     7    12     6
 -0.0035780158     1     7    12     9
 0.0037409737     1     7    12    10
 -0.0047145978     1     8     2     3
 0.0009352797     1     8     2     7
 -0.0012692701     1     8     2    12
 -0.1507739012     1     8     3     1
 -0.0165301021     1     8     3     2
 0.0023494808     1     8     3     4
 0.0051879965     1     8     3     6
 -0.0039422179     1     8     3     9
 -0.0050839079     1     8     3    10
 0.0059921045     1     8     4     3
 -0.0023541775     1     8     4     7
 -0.0077180099     1     8     4    12
 0.0003653300     1     8     6     3
 -0.0014155372     1     8     6     7
 -0.0013190338     1     8     6    12
 0.1544031704     1     8     7     1
 0.0074357477     1     8     7     2
 0.0016849420     1     8     7     4
 -0.0034339595     1     8     7     6
 0.0022415663     1     8     7     9
 0.0003120801     1     8     7    10
 -0.5538742915     1     8     8     1
 -0.0061624047     1     8     8     2
 -0.0061652579     1     8     8     4
 0.0012160200     1     8     8     6
 -0.0023767795     1     8     8     9
 0.0024130725     1     8     8    10
 0.0048613067     1     8     9     3
 -0.0014529674     1     8     9     7
 -0.0023703473     1     8     9    12
 -0.0021518745     1     8    10     3
 0.0005847526     1     8    10     7
 0.0003152098     1     8    10    12
 0.1089800768     1     8    12     1
 0.0113327823     1     8    12     2
 0.0028495207     1     8    12     4
 -0.0047123365     1     8    12     6
 0.0037234177     1     8    12     9
 -0.0029216227     1     8    12    10
 -0.1464227358     1     9     2     1
 -0.0044766974     1     9     2     2
 0.0024676567     1     9     2     4
 0.0009422514     1     9     2     6
 0.0037279057     1     9     2    10
 -0.0007078879     1     9     3     3
 -0.0011718351     1     9     3     7
 0.0039422179     1     9     3     8
 -0.0007487529     1     9     3    12
 0.1557770591     1     9     4     1
 0.0169357064     1     9     4     2
 0.0129659111     1     9     4     4
 -0.0018916746     1     9     4     6
 -0.0106561758     1     9     4    10
 0.0123984984     1     9     5     5
 0.0151486931     1     9     5    11
 0.1605447458     1     9     6     1
 0.0049224079     1     9     6     2
 0.0052158293     1     9     6     4
 -0.0013467858     1     9     6     6
 -0.0042643541     1     9     6    10
 -0.0033738121     1     9     7     3
 0.0012249334     1     9     7     7
 -0.0022415663     1     9     7     8
 0.0030747781     1     9     7    12
 0.0088444827     1     9     8     3
 -0.0036936351     1     9     8     7
 0.0023767795     1     9     8     8
 -0.0061002167     1     9     8    12
 -0.5746014736     1     9     9     1
 -0.0067896562     1     9     9     2
 -0.0111207739     1     9     9     4
 0.0002553627     1     9     9     6
 0.0116245542     1     9     9    10
 -0.1223778328     1     9    10     1
 -0.0119836643     1     9    10     2
 -0.0104255183     1     9    10     4
 0.0032890391     1     9    10     6
 0.0090784999     1     9    10    10
 0.0108233449     1     9    11     5
 0.0134026545     1     9    11    11
 -0.0059250197     1     9    12     3
 0.0035780158     1     9    12     7
 -0.0037234177     1     9    12     8
 0.0084940012     1     9    12    12
 0.0172404574     1    10     2     1
 -0.0089713253     1    10     2     2
 0.0114795548     1    10     2     4
 0.0038506473     1    10     2     6
 -0.0037279057     1    10     2     9
 -0.0050800904     1    10     3     3
 -0.0000781960     1    10     3     7
 0.0050839079     1    10     3     8
 0.0037133546     1    10     3    12
 0.3577032800     1    10     4     1
 0.0358937423     1    10     4     2
 0.0061370243     1    10     4     4
 -0.0099731311     1    10     4     6
 0.0106561758     1    10     4     9
 -0.0092853989     1    10     5     5
 -0.0099301339     1    10     5    11
 0.0848416446     1    10     6     1
 0.0101920775     1    10     6     2
 0.0023207452     1    10     6     4
 -0.0051260368     1    10     6     6
 0.0042643541     1    10     6     9
 0.0010232396     1    10     7     3
 -0.0018575927     1    10     7     7
 -0.0003120801     1    10     7     8
 -0.0027530009     1    10     7    12
 0.0032359185     1    10     8     3
 0.0002940240     1    10     8     7
 -0.0024130725     1    10     8     8
 0.0032367796     1    10     8    12
 -0.1223778328     1    10     9     1
 -0.0158226285     1    10     9     2
 0.0002096261     1    10     9     4
 0.0075540796     1    10     9     6
 -0.0116245542     1    10     9     9
 -0.7946279150     1    10    10     1
 -0.0266654814     1    10    10     2
 -0.0046171882     1    10    10     4
 0.0116607669     1    10    10     6
 -0.0090784999     1    10    10     9
 -0.0078057595     1    10    11     5
 -0.0093943140     1    10    11    11
 0.0078507825     1    10    12     3
 -0.0037409737     1    10    12     7
 0.0029216227     1    10    12     8
 -0.0058467077     1    10    12    12
 -0.0156748539     1    11     2     5
 -0.0042875637     1    11     4     5
 -0.4530586449     1    11     5     1
 -0.0479536548     1    11     5     2
 -0.0153200019     1    11     5     4
 0.0126469414     1    11     5     6
 -0.0151486931     1    11     5     9
 0.0099301339     1    11     5    10
 -0.0002854443     1    11     6     5
 -0.0047071378     1    11     9     5
 0.0024764397     1    11    10     5
 -0.9484047051     1    11    11     1
 -0.0405111496     1    11    11     2
 -0.0136122323     1    11    11     4
 0.0158214855     1    11    11     6
 -0.0134026545     1    11    11     9
 0.0093943140     1    11    11    10
 0.0124052351     1    12     2     3
 -0.0031942233     1    12     2     7
 0.0012692701     1    12     2     8
 0.3023629597     1    12     3     1
 0.0333017671     1    12     3     2
 0.0095707849     1    12     3     4
 -0.0065278598     1    12     3     6
 0.0007487529     1    12     3     9
 -0.0037133546     1    12     3    10
 0.0022333397     1    12     4     3
 -0.0030685377     1    12     4     7
 0.0077180099     1    12     4     8
 0.0017619129     1    12     6     3
 0.0016504443     1    12     6     7
 0.0013190338     1    12     6     8
 -0.2065852725     1    12     7     1
 -0.0153058012     1    12     7     2
 -0.0067467762     1    12     7     4
 0.0063732012     1    12     7     6
 -0.0030747781     1    12     7     9
 0.0027530009     1    12     7    10
 0.1089800768     1    12     8     1
 0.0127294636     1    12     8     2
 0.0107327913     1    12     8     4
 -0.0034159569     1    12     8     6
 0.0061002167     1    12     8     9
 -0.0032367796     1    12     8    10
 -0.0053334309     1    12     9     3
 0.0004937561     1    12     9     7
 0.0023703473     1    12     9     8
 0.0041239403     1    12    10     3
 -0.0009849473     1    12    10     7
 -0.0003152098     1    12    10     8
 -0.7471774356     1    12    12     1
 -0.0253689864     1    12    12     2
 -0.0056905605     1    12    12     4
 0.0103426609     1    12    12     6
 -0.0084940012     1    12    12     9
 0.0058467077     1    12    12    10
 -0.9830572655     2     1     1     2
 -0.0727738665     2     1     1     4
 0.1805248570     2     1     1     6
 -0.1464227358     2     1     1     9
 0.0172404574     2     1     1    10
 0.0297628452     2     1     3     3
 -0.0130871972     2     1     3     7
 0.0116273675     2     1     3     8
 -0.0204201549     2     1     3    12
 -0.0068298986     2     1     4     2
 0.0355435218     2     1     4     4
 0.0096185320     2     1     4     6
 -0.0142659693     2     1     4     9
 -0.0238548737     2     1     4    10
 0.0412361002     2     1     5     5
 0.0316373614     2     1     5    11
 -0.0025678217     2     1     6     2
 0.0096167100     2     1     6     4
 0.0026059440     2     1     6     6
 -0.0039718746     2     1     6     9
 -0.0061651244     2     1     6    10
 -0.0165378379     2     1     7     3
 0.0073644445     2     1     7     7
 -0.0064802654     2     1     7     8
 0.0119079321     2     1     7    12
 0.0165301021     2     1     8     3
 -0.0074357477     2     1     8     7
 0.0061624047     2     1     8     8
 -0.0113327823     2     1     8    12
 0.0044766974     2     1     9     2
 -0.0169357064     2     1     9     4
 -0.0049224079     2     1     9     6
 0.0067896562     2     1     9     9
 0.0119836643     2     1     9    10
 0.0089713253     2     1    10     2
 -0.0358937423     2     1    10     4
 -0.0101920775     2     1    10     6
 0.0158226285     2     1    10     9
 0.0266654814     2     1    10    10
 0.0479536548     2     1    11     5
 0.0405111496     2     1    11    11
 -0.0333017671     2     1    12     3
 0.0153058012     2     1    12     7
 -0.0127294636     2     1    12     8
 0.0253689864     2     1    12    12
 0.9830572655     2     2     1     1
 0.0068298986     2     2     1     4
 0.0025678217     2     2     1     6
 -0.0044766974     2     2     1     9
 -0.0089713253     2     2     1    10
 0.5246126818     2     2     3     3
 -0.0864604256     2     2     3     7
 0.0321694639     2     2     3     8
 -0.1002508762     2     2     3    12
 0.0068298986     2     2     4     1
 0.5527989919     2     2     4     4
 0.0435574294     2     2     4     6
 -0.0513970429     2     2     4     9
 -0.1158973541     2     2     4    10
 0.5840765311     2     2     5     5
 0.1472395317     2     2     5    11
 0.0025678217     2     2     6     1
 0.0435574294     2     2     6     4
 0.3313705818     2     2     6     6
 -0.0787267772     2     2     6     9
 -0.0405523300     2     2     6    10
 -0.0864604256     2     2     7     3
 0.3276920215     2     2     7     7
 -0.0855659046     2     2     7     8
 0.0935833180     2     2     7    12
 0.0321694639     2     2     8     3
 -0.0855659046     2     2     8     7
 0.4730185561     2     2     8     8
 -0.0224488366     2     2     8    12
 -0.0044766974     2     2     9     1
 -0.0513970429     2     2     9     4
 -0.0787267772     2     2     9     6
 0.4705144897     2     2     9     9
 0.0244217024     2     2     9    10
 -0.0089713253     2     2    10     1
 -0.1158973541     2     2    10     4
 -0.0405523300     2     2    10     6
 0.0244217024     2     2    10     9
 0.5371558757     2     2    10    10
 0.1472395317     2     2    11     5
 0.5815603255     2     2    11    11
 -0.1002508762     2     2    12     3
 0.0935833180     2     2    12     7
 -0.0224488366     2     2    12     8
 0.5092363802     2     2    12    12
 0.0032022964     2     3     1     7
 -0.0047145978     2     3     1     8
 0.0124052351     2     3     1    12
 -0.0297628452     2     3     3     1
 -0.5246126818     2     3     3     2
 -0.0028864461     2     3     3     4
 0.0774668160     2     3     3     6
 -0.0797202682     2     3     3     9
 0.0202063052     2     3     3    10
 -0.0150121763     2     3     4     7
 0.0392191848     2     3     4     8
 0.0081730820     2     3     4    12
 0.0401497150     2     3     6     7
 0.0001305044     2     3     6     8
 0.0255612080     2     3     6    12
 0.0165378379     2     3     7     1
 0.0864604256     2     3     7     2
 -0.0005307627     2     3     7     4
 0.0185646296     2     3     7     6
 0.0079525641     2     3     7     9
 -0.0035685926     2     3     7    10
 -0.0165301021     2     3     8     1
 -0.0321694639     2     3     8     2
 0.0052797957     2     3     8     4
 0.0059070027     2     3     8     6
 0.0508651725     2     3     8     9
 0.0066959800     2     3     8    10
 -0.0147606709     2     3     9     7
 0.0537804956     2     3     9     8
 -0.0331087594     2     3     9    12
 0.0003161733     2     3    10     7
 0.0051879969     2     3    10     8
 0.0217662221     2     3    10    12
 0.0333017671     2     3    12     1
 0.1002508762     2     3    12     2
 0.0074048476     2     3    12     4
 -0.0012243168     2     3    12     6
 -0.0043600145     2     3    12     9
 0.0184609585     2     3    12    10
 0.0727738665     2     4     1     1
 -0.0068298986     2     4     1     2
 0.0001493466     2     4     1     6
 0.0024676567     2     4     1     9
 0.0114795548     2     4     1    10
 0.0028864461     2     4     3     3
 -0.0145031064     2     4     3     7
 0.0346737137     2     4     3     8
 0.0009864597     2     4     3    12
 -0.0355435218     2     4     4     1
 -0.5527989919     2     4     4     2
 0.0789972645     2     4     4     6
 -0.0531048460     2     4     4     9
 -0.0152196692     2     4     4    10
 0.0065088376     2     4     5     5
 0.0117671512     2     4     5    11
 -0.0096167100     2     4     6     1
 -0.0435574294     2     4     6     2
 -0.0096927321     2     4     6     6
 -0.0006415518     2     4     6     9
 0.0203591285     2     4     6    10
 0.0005307627     2     4     7     3
 -0.0142375850     2     4     7     7
 -0.0040839123     2     4     7     8
 0.0017180794     2     4     7    12
 -0.0052797957     2     4     8     3
 0.0047923328     2     4     8     7
 -0.0190054807     2     4     8     8
 0.0148637596     2     4     8    12
 0.0169357064     2     4     9     1
 0.0513970429     2     4     9     2
 -0.0056665928     2     4     9     6
 -0.0266598641     2     4     9     9
 0.0097159926     2     4     9    10
 0.0358937423     2     4    10     1
 0.1158973541     2     4    10     2
 -0.0077558324     2     4    10     6
 0.0351195784     2     4    10     9
 0.0176614133     2     4    10    10
 0.0095969099     2     4    11     5
 0.0243682976     2     4    11    11
 -0.0074048476     2     4    12     3
 0.0037300291     2     4    12     7
 0.0091891980     2     4    12     8
 0.0246314088     2     4    12    12
 -0.0156748539     2     5     1    11
 0.0024432645     2     5     4    11
 -0.0412361002     2     5     5     1
 -0.5840765311     2     5     5     2
 -0.0065088376     2     5     5     4
 0.0755348198     2     5     5     6
 -0.0346567392     2     5     5     9
 -0.0079521253     2     5     5    10
 -0.0238489877     2     5     6    11
 0.0015984309     2     5     9    11
 -0.0016147475     2     5    10    11
 -0.0479536548     2     5    11     1
 -0.1472395317     2     5    11     2
 -0.0095969099     2     5    11     4
 0.0131105156     2     5    11     6
 -0.0281245256     2     5    11     9
 -0.0016765896     2     5    11    10
 -0.1805248570     2     6     1     1
 -0.0025678217     2     6     1     2
 -0.0001493466     2     6     1     4
 0.0009422514     2     6     1     9
 0.0038506473     2     6     1    10
 -0.0774668160     2     6     3     3
 0.0215787666     2     6     3     7
 -0.0060355617     2     6     3     8
 0.0265666112     2     6     3    12
 -0.0096185320     2     6     4     1
 -0.0435574294     2     6     4     2
 -0.0789972645     2     6     4     4
 0.0053364613     2     6     4     9
 0.0285941961     2     6     4    10
 -0.0755348198     2     6     5     5
 -0.0373094614     2     6     5    11
 -0.0026059440     2     6     6     1
 -0.3313705818     2     6     6     2
 0.0096927321     2     6     6     4
 0.0125639082     2     6     6     9
 0.0133812119     2     6     6    10
 -0.0185646296     2     6     7     3
 -0.0150138964     2     6     7     7
 0.0239231367     2     6     7     8
 -0.0241602456     2     6     7    12
 -0.0059070027     2     6     8     3
 0.0140446217     2     6     8     7
 -0.0401764306     2     6     8     8
 0.0041967767     2     6     8    12
 0.0049224079     2     6     9     1
 0.0787267772     2     6     9     2
 0.0056665928     2     6     9     4
 -0.0302043662     2     6     9     9
 -0.0059236994     2     6     9    10
 0.0101920775     2     6    10     1
 0.0405523300     2     6    10     2
 0.0077558324     2     6    10     4
 -0.0013838874     2     6    10     9
 -0.0578612114     2     6    10    10
 -0.0131105156     2     6    11     5
 -0.0698531355     2     6    11    11
 0.0012243168     2     6    12     3
 -0.0134378364     2     6    12     7
 0.0065049733     2     6    12     8
 -0.0476353860     2     6    12    12
 -0.0032022964     2     7     1     3
 0.0009352797     2     7     1     8
 -0.0031942233     2     7     1    12
 0.0130871972     2     7     3     1
 0.0864604256     2     7     3     2
 0.0145031064     2     7     3     4
 -0.0215787666     2     7     3     6
 0.0220930452     2     7     3     9
 -0.0035546181     2     7     3    10
 0.0150121763     2     7     4     3
 -0.0081430569     2     7     4     8
 -0.0014745372     2     7     4    12
 -0.0401497150     2     7     6     3
 0.0098844872     2     7     6     8
 -0.0106981986     2     7     6    12
 -0.0073644445     2     7     7     1
 -0.3276920215     2     7     7     2
 0.0142375850     2     7     7     4
 0.0150138964     2     7     7     6
 0.0003642319     2     7     7     9
 0.0022348418     2     7     7    10
 0.0074357477     2     7     8     1
 0.0855659046     2     7     8     2
 -0.0047923328     2     7     8     4
 -0.0140446217     2     7     8     6
 0.0050049377     2     7     8     9
 -0.0008230068     2     7     8    10
 0.0147606709     2     7     9     3
 -0.0069529419     2     7     9     8
 0.0005212028     2     7     9    12
 -0.0003161733     2     7    10     3
 -0.0020989456     2     7    10     8
 -0.0062279494     2     7    10    12
 -0.0153058012     2     7    12     1
 -0.0935833180     2     7    12     2
 -0.0037300291     2     7    12     4
 0.0134378364     2     7    12     6
 -0.0105027845     2     7    12     9
 -0.0062961147     2     7    12    10
 0.0047145978     2     8     1     3
 -0.0009352797     2     8     1     7
 0.0012692701     2     8     1    12
 -0.0116273675     2     8     3     1
 -0.0321694639     2     8     3     2
 -0.0346737137     2     8     3     4
 0.0060355617     2     8     3     6
 -0.0029794627     2     8     3     9
 0.0009475471     2     8     3    10
 -0.0392191848     2     8     4     3
 0.0081430569     2     8     4     7
 0.0048410804     2     8     4    12
 -0.0001305044     2     8     6     3
 -0.0098844872     2     8     6     7
 -0.0024455798     2     8     6    12
 0.0064802654     2     8     7     1
 0.0855659046     2     8     7     2
 0.0040839123     2     8     7     4
 -0.0239231367     2     8     7     6
 0.0119345742     2     8     7     9
 0.0014425730     2     8     7    10
 -0.0061624047     2     8     8     1
 -0.4730185561     2     8     8     2
 0.0190054807     2     8     8     4
 0.0401764306     2     8     8     6
 -0.0246256767     2     8     8     9
 -0.0017907246     2     8     8    10
 -0.0537804956     2     8     9     3
 0.0069529419     2     8     9     7
 0.0078832497     2     8     9    12
 -0.0051879969     2     8    10     3
 0.0020989456     2     8    10     7
 0.0040808151     2     8    10    12
 0.0127294636     2     8    12     1
 0.0224488366     2     8    12     2
 -0.0091891980     2     8    12     4
 -0.0065049733     2     8    12     6
 0.0124202494     2     8    12     9
 0.0043094684     2     8    12    10
 0.1464227358     2     9     1     1
 0.0044766974     2     9     1     2
 -0.0024676567     2     9     1     4