&FCI NORB= 11,NELEC= 10,MS2=0,
 ORBSYM=1,1,1,1,1,1,1,1,1,1,1
 ISYM=1,
&END
 0.9878662840     1     1     2     2
 -0.0166196192     1     1     2     3
 0.0784538954     1     1     2     4
 -0.1448396167     1     1     2     6
 0.0497616168     1     1     2     7
 0.0638978097     1     1     2     8
 0.0802962181     1     1     2     9
 0.0293599756     1     1     2    10
 -0.0166196192     1     1     3     2
 0.8401667473     1     1     3     3
 -0.0583341468     1     1     3     4
 0.0706454257     1     1     3     6
 0.1753312342     1     1     3     7
 -0.0922013177     1     1     3     8
 0.0265152108     1     1     3     9
 0.1295188519     1     1     3    10
 0.0784538954     1     1     4     2
 -0.0583341468     1     1     4     3
 0.8920614254     1     1     4     4
 0.1494699229     1     1     4     6
 0.0417616679     1     1     4     7
 -0.1078536864     1     1     4     8
 0.0499835584     1     1     4     9
 -0.2405367265     1     1     4    10
 1.0002767891     1     1     5     5
 0.3030475456     1     1     5    11
 -0.1448396167     1     1     6     2
 0.0706454257     1     1     6     3
 0.1494699229     1     1     6     4
 0.3703601676     1     1     6     6
 0.0224838016     1     1     6     7
 -0.1289863233     1     1     6     8
 -0.0253516059     1     1     6     9
 -0.0757838180     1     1     6    10
 0.0497616168     1     1     7     2
 0.1753312342     1     1     7     3
 0.0417616679     1     1     7     4
 0.0224838016     1     1     7     6
 0.3071964213     1     1     7     7
 -0.0751419503     1     1     7     8
 0.0471797446     1     1     7     9
 0.0515402451     1     1     7    10
 0.0638978097     1     1     8     2
 -0.0922013177     1     1     8     3
 -0.1078536864     1     1     8     4
 -0.1289863233     1     1     8     6
 -0.0751419503     1     1     8     7
 0.3902441347     1     1     8     8
 -0.0113757226     1     1     8     9
 0.0255488757     1     1     8    10
 0.0802962181     1     1     9     2
 0.0265152108     1     1     9     3
 0.0499835584     1     1     9     4
 -0.0253516059     1     1     9     6
 0.0471797446     1     1     9     7
 -0.0113757226     1     1     9     8
 0.3710556322     1     1     9     9
 0.0142277113     1     1     9    10
 0.0293599756     1     1    10     2
 0.1295188519     1     1    10     3
 -0.2405367265     1     1    10     4
 -0.0757838180     1     1    10     6
 0.0515402451     1     1    10     7
 0.0255488757     1     1    10     8
 0.0142277113     1     1    10     9
 0.4699562703     1     1    10    10
 0.3030475456     1     1    11     5
 0.4949142121     1     1    11    11
 -0.9878662840     1     2     2     1
 -0.0037544155     1     2     2     3
 0.0039378549     1     2     2     4
 0.0012366011     1     2     2     6
 -0.0014681775     1     2     2     7
 -0.0003536854     1     2     2     8
 -0.0004618897     1     2     2     9
 -0.0039582173     1     2     2    10
 0.0166196192     1     2     3     1
 -0.0296371220     1     2     3     3
 0.0037537098     1     2     3     4
 -0.0040043356     1     2     3     6
 -0.0123469376     1     2     3     7
 0.0076763328     1     2     3     8
 -0.0039736758     1     2     3     9
 -0.0112268988     1     2     3    10
 -0.0784538954     1     2     4     1
 0.0032979203     1     2     4     3
 -0.0328006781     1     2     4     4
 -0.0112961438     1     2     4     6
 -0.0020913286     1     2     4     7
 0.0093639909     1     2     4     8
 -0.0022289044     1     2     4     9
 0.0184601303     1     2     4    10
 -0.0420323295     1     2     5     5
 -0.0239221345     1     2     5    11
 0.1448396167     1     2     6     1
 -0.0028450688     1     2     6     3
 -0.0109992699     1     2     6     4
 -0.0045678867     1     2     6     6
 -0.0025116140     1     2     6     7
 0.0044189122     1     2     6     8
 -0.0011681845     1     2     6     9
 0.0048575307     1     2     6    10
 -0.0497616168     1     2     7     1
 -0.0106972277     1     2     7     3
 -0.0015122304     1     2     7     4
 -0.0026291962     1     2     7     6
 -0.0045362279     1     2     7     7
 0.0036726757     1     2     7     8
 -0.0015202577     1     2     7     9
 -0.0023241891     1     2     7    10
 -0.0638978097     1     2     8     1
 0.0058463759     1     2     8     3
 0.0084198565     1     2     8     4
 0.0042140429     1     2     8     6
 0.0033861136     1     2     8     7
 -0.0045492495     1     2     8     8
 0.0015543157     1     2     8     9
 -0.0028537986     1     2     8    10
 -0.0802962181     1     2     9     1
 -0.0032604154     1     2     9     3
 -0.0014127189     1     2     9     4
 -0.0009419382     1     2     9     6
 -0.0013878101     1     2     9     7
 0.0014137684     1     2     9     8
 -0.0005309544     1     2     9     9
 0.0000442666     1     2     9    10
 -0.0293599756     1     2    10     1
 -0.0090012476     1     2    10     3
 0.0157485761     1     2    10     4
 0.0038467344     1     2    10     6
 -0.0019623276     1     2    10     7
 -0.0023841209     1     2    10     8
 0.0003451530     1     2    10     9
 -0.0110859703     1     2    10    10
 -0.0197280871     1     2    11     5
 -0.0113539696     1     2    11    11
 0.0166196192     1     3     2     1
 0.0037544155     1     3     2     2
 0.0004557895     1     3     2     4
 -0.0011592668     1     3     2     6
 -0.0016497099     1     3     2     7
 0.0018299569     1     3     2     8
 -0.0007132604     1     3     2     9
 -0.0022256512     1     3     2    10
 -0.8401667473     1     3     3     1
 0.0296371220     1     3     3     2
 0.0070431460     1     3     3     4
 -0.0036787695     1     3     3     6
 0.0023728897     1     3     3     7
 0.0005340360     1     3     3     8
 0.0004707068     1     3     3     9
 -0.0016806443     1     3     3    10
 0.0583341468     1     3     4     1
 -0.0032979203     1     3     4     2
 0.0037205366     1     3     4     4
 0.0032838827     1     3     4     6
 0.0013990749     1     3     4     7
 -0.0046914015     1     3     4     8
 0.0012483007     1     3     4     9
 -0.0013992245     1     3     4    10
 0.0058961782     1     3     5     5
 0.0041800876     1     3     5    11
 -0.0706454257     1     3     6     1
 0.0028450688     1     3     6     2
 0.0022854389     1     3     6     4
 -0.0005888571     1     3     6     6
 -0.0010579684     1     3     6     7
 -0.0002650104     1     3     6     8
 0.0007936402     1     3     6     9
 -0.0010466861     1     3     6    10
 -0.1753312342     1     3     7     1
 0.0106972277     1     3     7     2
 0.0030192231     1     3     7     4
 -0.0033905801     1     3     7     6
 0.0022689104     1     3     7     7
 0.0008897200     1     3     7     8
 0.0016862684     1     3     7     9
 0.0007306228     1     3     7    10
 0.0922013177     1     3     8     1
 -0.0058463759     1     3     8     2
 -0.0026451677     1     3     8     4
 0.0015733819     1     3     8     6
 -0.0000986150     1     3     8     7
 -0.0020789827     1     3     8     8
 -0.0003662934     1     3     8     9
 -0.0008135736     1     3     8    10
 -0.0265152108     1     3     9     1
 0.0032604154     1     3     9     2
 0.0006873288     1     3     9     4
 -0.0002780362     1     3     9     6
 0.0017423377     1     3     9     7
 0.0001236469     1     3     9     8
 0.0008900650     1     3     9     9
 0.0031588314     1     3     9    10
 -0.1295188519     1     3    10     1
 0.0090012476     1     3    10     2
 0.0001686061     1     3    10     4
 -0.0033917000     1     3    10     6
 0.0013683454     1     3    10     7
 0.0013393894     1     3    10     8
 0.0026644381     1     3    10     9
 0.0026106307     1     3    10    10
 0.0024437432     1     3    11     5
 -0.0000404696     1     3    11    11
 -0.0784538954     1     4     2     1
 -0.0039378549     1     4     2     2
 -0.0004557895     1     4     2     3
 -0.0002968739     1     4     2     6
 -0.0005790982     1     4     2     7
 0.0009441344     1     4     2     8
 -0.0008161855     1     4     2     9
 0.0027115542     1     4     2    10
 0.0583341468     1     4     3     1
 -0.0037537098     1     4     3     2
 -0.0070431460     1     4     3     3
 0.0009984438     1     4     3     6
 -0.0016201482     1     4     3     7
 -0.0020462338     1     4     3     8
 0.0005609719     1     4     3     9
 -0.0015678306     1     4     3    10
 -0.8920614254     1     4     4     1
 0.0328006781     1     4     4     2
 -0.0037205366     1     4     4     3
 -0.0081778736     1     4     4     6
 0.0016569455     1     4     4     7
 0.0041615903     1     4     4     8
 0.0053311239     1     4     4     9
 0.0043196062     1     4     4    10
 -0.0107104237     1     4     5     5
 -0.0050491134     1     4     5    11
 -0.1494699229     1     4     6     1
 0.0109992699     1     4     6     2
 -0.0022854389     1     4     6     3
 -0.0050770076     1     4     6     6
 -0.0003987209     1     4     6     7
 0.0028769181     1     4     6     8
 0.0013061584     1     4     6     9
 0.0027192014     1     4     6    10
 -0.0417616679     1     4     7     1
 0.0015122304     1     4     7     2
 -0.0030192231     1     4     7     3
 -0.0012442119     1     4     7     6
 -0.0018756896     1     4     7     7
 0.0012281661     1     4     7     8
 0.0000819647     1     4     7     9
 -0.0011719119     1     4     7    10
 0.1078536864     1     4     8     1
 -0.0084198565     1     4     8     2
 0.0026451677     1     4     8     3
 0.0040389827     1     4     8     6
 0.0014511668     1     4     8     7
 -0.0046226822     1     4     8     8
 -0.0017279974     1     4     8     9
 -0.0006167943     1     4     8    10
 -0.0499835584     1     4     9     1
 0.0014127189     1     4     9     2
 -0.0006873288     1     4     9     3
 -0.0012414726     1     4     9     6
 -0.0006371955     1     4     9     7
 0.0001597157     1     4     9     8
 -0.0010223588     1     4     9     9
 -0.0003157924     1     4     9    10
 0.2405367265     1     4    10     1
 -0.0157485761     1     4    10     2
 -0.0001686061     1     4    10     3
 0.0060314647     1     4    10     6
 -0.0024783586     1     4    10     7
 -0.0023708073     1     4    10     8
 -0.0033166274     1     4    10     9
 -0.0018636352     1     4    10    10
 -0.0055137504     1     4    11     5
 -0.0045899710     1     4    11    11
 -0.0041940474     1     5     2    11
 0.0017363444     1     5     3    11
 0.0004646370     1     5     4    11
 -1.0002767891     1     5     5     1
 0.0420323295     1     5     5     2
 -0.0058961782     1     5     5     3
 0.0107104237     1     5     5     4
 -0.0089976881     1     5     5     6
 0.0020055878     1     5     5     7
 0.0059911400     1     5     5     8
 0.0080179755     1     5     5     9
 -0.0008644255     1     5     5    10
 -0.0011982154     1     5     6    11
 0.0006225070     1     5     7    11
 -0.0012689335     1     5     8    11
 -0.0011638350     1     5     9    11
 0.0000431564     1     5    10    11
 -0.3030475456     1     5    11     1
 0.0197280871     1     5    11     2
 -0.0024437432     1     5    11     3
 0.0055137504     1     5    11     4
 -0.0069239746     1     5    11     6
 0.0013221442     1     5    11     7
 0.0027520731     1     5    11     8
 0.0032545219     1     5    11     9
 -0.0001118961     1     5    11    10
 0.1448396167     1     6     2     1
 -0.0012366011     1     6     2     2
 0.0011592668     1     6     2     3
 0.0002968739     1     6     2     4
 0.0001175822     1     6     2     7
 0.0002048693     1     6     2     8
 -0.0002262463     1     6     2     9
 0.0010107963     1     6     2    10
 -0.0706454257     1     6     3     1
 0.0040043356     1     6     3     2
 0.0036787695     1     6     3     3
 -0.0009984438     1     6     3     4
 0.0023326117     1     6     3     7
 -0.0018383923     1     6     3     8
 0.0010716764     1     6     3     9
 0.0023450139     1     6     3    10
 -0.1494699229     1     6     4     1
 0.0112961438     1     6     4     2
 -0.0032838827     1     6     4     3
 0.0081778736     1     6     4     4
 0.0008454910     1     6     4     7
 -0.0011620646     1     6     4     8
 0.0025476310     1     6     4     9
 -0.0033122633     1     6     4    10
 0.0089976881     1     6     5     5
 0.0057257592     1     6     5    11
 -0.3703601676     1     6     6     1
 0.0045678867     1     6     6     2
 0.0005888571     1     6     6     3
 0.0050770076     1     6     6     4
 0.0008027254     1     6     6     7
 -0.0009007434     1     6     6     8
 0.0011605877     1     6     6     9
 -0.0012075643     1     6     6    10
 -0.0224838016     1     6     7     1
 0.0026291962     1     6     7     2
 0.0033905801     1     6     7     3
 0.0012442119     1     6     7     4
 0.0016634487     1     6     7     7
 -0.0009067421     1     6     7     8
 0.0009780053     1     6     7     9
 0.0006736093     1     6     7    10
 0.1289863233     1     6     8     1
 -0.0042140429     1     6     8     2
 -0.0015733819     1     6     8     3
 -0.0040389827     1     6     8     4
 -0.0009466074     1     6     8     7
 -0.0001707459     1     6     8     8
 -0.0013390813     1     6     8     9
 0.0007915417     1     6     8    10
 0.0253516059     1     6     9     1
 0.0009419382     1     6     9     2
 0.0002780362     1     6     9     3
 0.0012414726     1     6     9     4
 0.0003739579     1     6     9     7
 -0.0004499211     1     6     9     8
 -0.0001108553     1     6     9     9
 -0.0000696726     1     6     9    10
 0.0757838180     1     6    10     1
 -0.0038467344     1     6    10     2
 0.0033917000     1     6    10     3
 -0.0060314647     1     6    10     4
 0.0001294613     1     6    10     7
 0.0003427150     1     6    10     8
 -0.0008083995     1     6    10     9
 0.0040616983     1     6    10    10
 0.0069239746     1     6    11     5
 0.0031515845     1     6    11    11
 -0.0497616168     1     7     2     1
 0.0014681775     1     7     2     2
 0.0016497099     1     7     2     3
 0.0005790982     1     7     2     4
 -0.0001175822     1     7     2     6
 0.0002865621     1     7     2     8
 -0.0001324476     1     7     2     9
 -0.0003618615     1     7     2    10
 -0.1753312342     1     7     3     1
 0.0123469376     1     7     3     2
 -0.0023728897     1     7     3     3
 0.0016201482     1     7     3     4
 -0.0023326117     1     7     3     6
 0.0009883350     1     7     3     8
 -0.0000560693     1     7     3     9
 -0.0006377226     1     7     3    10
 -0.0417616679     1     7     4     1
 0.0020913286     1     7     4     2
 -0.0013990749     1     7     4     3
 -0.0016569455     1     7     4     4
 -0.0008454910     1     7     4     6
 -0.0002230007     1     7     4     8
 0.0007191602     1     7     4     9
 0.0013064467     1     7     4    10
 -0.0020055878     1     7     5     5
 -0.0006996372     1     7     5    11
 -0.0224838016     1     7     6     1
 0.0025116140     1     7     6     2
 0.0010579684     1     7     6     3
 0.0003987209     1     7     6     4
 -0.0008027254     1     7     6     6
 0.0000398653     1     7     6     8
 0.0006040474     1     7     6     9
 0.0005441480     1     7     6    10
 -0.3071964213     1     7     7     1
 0.0045362279     1     7     7     2
 -0.0022689104     1     7     7     3
 0.0018756896     1     7     7     4
 -0.0016634487     1     7     7     6
 0.0008686472     1     7     7     8
 0.0005095778     1     7     7     9
 -0.0007099003     1     7     7    10
 0.0751419503     1     7     8     1
 -0.0033861136     1     7     8     2
 0.0000986150     1     7     8     3
 -0.0014511668     1     7     8     4
 0.0009466074     1     7     8     6
 -0.0012117951     1     7     8     8
 -0.0003729358     1     7     8     9
 -0.0003010848     1     7     8    10
 -0.0471797446     1     7     9     1
 0.0013878101     1     7     9     2
 -0.0017423377     1     7     9     3
 0.0006371955     1     7     9     4
 -0.0003739579     1     7     9     6
 0.0004181933     1     7     9     8
 0.0000751221     1     7     9     9
 0.0006159597     1     7     9    10
 -0.0515402451     1     7    10     1
 0.0019623276     1     7    10     2
 -0.0013683454     1     7    10     3
 0.0024783586     1     7    10     4
 -0.0001294613     1     7    10     6
 -0.0000881818     1     7    10     8
 0.0007854623     1     7    10     9
 -0.0007937332     1     7    10    10
 -0.0013221442     1     7    11     5
 -0.0015103643     1     7    11    11
 -0.0638978097     1     8     2     1
 0.0003536854     1     8     2     2
 -0.0018299569     1     8     2     3
 -0.0009441344     1     8     2     4
 -0.0002048693     1     8     2     6
 -0.0002865621     1     8     2     7
 0.0001405473     1     8     2     9
 -0.0004696777     1     8     2    10
 0.0922013177     1     8     3     1
 -0.0076763328     1     8     3     2
 -0.0005340360     1     8     3     3
 0.0020462338     1     8     3     4
 0.0018383923     1     8     3     6
 -0.0009883350     1     8     3     7
 -0.0004899403     1     8     3     9
 -0.0021529630     1     8     3    10
 0.1078536864     1     8     4     1
 -0.0093639909     1     8     4     2
 0.0046914015     1     8     4     3
 -0.0041615903     1     8     4     4
 0.0011620646     1     8     4     6
 0.0002230007     1     8     4     7
 -0.0018877131     1     8     4     9
 0.0017540130     1     8     4    10
 -0.0059911400     1     8     5     5
 -0.0040210066     1     8     5    11
 0.1289863233     1     8     6     1
 -0.0044189122     1     8     6     2
 0.0002650104     1     8     6     3
 -0.0028769181     1     8     6     4
 0.0009007434     1     8     6     6
 -0.0000398653     1     8     6     7
 -0.0008891602     1     8     6     9
 0.0004488267     1     8     6    10
 0.0751419503     1     8     7     1
 -0.0036726757     1     8     7     2
 -0.0008897200     1     8     7     3
 -0.0012281661     1     8     7     4
 0.0009067421     1     8     7     6
 -0.0008686472     1     8     7     7
 -0.0007911291     1     8     7     9
 -0.0002129030     1     8     7    10
 -0.3902441347     1     8     8     1
 0.0045492495     1     8     8     2
 0.0020789827     1     8     8     3
 0.0046226822     1     8     8     4
 0.0001707459     1     8     8     6
 0.0012117951     1     8     8     7
 0.0013511954     1     8     8     9
 -0.0007350577     1     8     8    10
 0.0113757226     1     8     9     1
 -0.0014137684     1     8     9     2
 -0.0001236469     1     8     9     3
 -0.0001597157     1     8     9     4
 0.0004499211     1     8     9     6
 -0.0004181933     1     8     9     7
 0.0000344456     1     8     9     9
 -0.0008923148     1     8     9    10
 -0.0255488757     1     8    10     1
 0.0023841209     1     8    10     2
 -0.0013393894     1     8    10     3
 0.0023708073     1     8    10     4
 -0.0003427150     1     8    10     6
 0.0000881818     1     8    10     7
 0.0003451067     1     8    10     9
 -0.0018681589     1     8    10    10
 -0.0027520731     1     8    11     5
 -0.0007273702     1     8    11    11
 -0.0802962181     1     9     2     1
 0.0004618897     1     9     2     2
 0.0007132604     1     9     2     3
 0.0008161855     1     9     2     4
 0.0002262463     1     9     2     6
 0.0001324476     1     9     2     7
 -0.0001405473     1     9     2     8
 -0.0003008864     1     9     2    10
 -0.0265152108     1     9     3     1
 0.0039736758     1     9     3     2
 -0.0004707068     1     9     3     3
 -0.0005609719     1     9     3     4
 -0.0010716764     1     9     3     6
 0.0000560693     1     9     3     7
 0.0004899403     1     9     3     8
 0.0004943933     1     9     3    10
 -0.0499835584     1     9     4     1
 0.0022289044     1     9     4     2
 -0.0012483007     1     9     4     3
 -0.0053311239     1     9     4     4
 -0.0025476310     1     9     4     6
 -0.0007191602     1     9     4     7
 0.0018877131     1     9     4     8
 0.0030008350     1     9     4    10
 -0.0080179755     1     9     5     5
 -0.0044183569     1     9     5    11
 0.0253516059     1     9     6     1
 0.0011681845     1     9     6     2
 -0.0007936402     1     9     6     3
 -0.0013061584     1     9     6     4
 -0.0011605877     1     9     6     6
 -0.0006040474     1     9     6     7
 0.0008891602     1     9     6     8
 0.0007387269     1     9     6    10
 -0.0471797446     1     9     7     1
 0.0015202577     1     9     7     2
 -0.0016862684     1     9     7     3
 -0.0000819647     1     9     7     4
 -0.0009780053     1     9     7     6
 -0.0005095778     1     9     7     7
 0.0007911291     1     9     7     8
 -0.0001695026     1     9     7    10
 0.0113757226     1     9     8     1
 -0.0015543157     1     9     8     2
 0.0003662934     1     9     8     3
 0.0017279974     1     9     8     4
 0.0013390813     1     9     8     6
 0.0003729358     1     9     8     7
 -0.0013511954     1     9     8     8
 -0.0012374215     1     9     8    10
 -0.3710556322     1     9     9     1
 0.0005309544     1     9     9     2
 -0.0008900650     1     9     9     3
 0.0010223588     1     9     9     4
 0.0001108553     1     9     9     6
 -0.0000751221     1     9     9     7
 -0.0000344456     1     9     9     8
 -0.0003361078     1     9     9    10
 -0.0142277113     1     9    10     1
 -0.0003451530     1     9    10     2
 -0.0026644381     1     9    10     3
 0.0033166274     1     9    10     4
 0.0008083995     1     9    10     6
 -0.0007854623     1     9    10     7
 -0.0003451067     1     9    10     8
 -0.0023936461     1     9    10    10
 -0.0032545219     1     9    11     5
 -0.0021548308     1     9    11    11
 -0.0293599756     1    10     2     1
 0.0039582173     1    10     2     2
 0.0022256512     1    10     2     3
 -0.0027115542     1    10     2     4
 -0.0010107963     1    10     2     6
 0.0003618615     1    10     2     7
 0.0004696777     1    10     2     8
 0.0003008864     1    10     2     9
 -0.1295188519     1    10     3     1
 0.0112268988     1    10     3     2
 0.0016806443     1    10     3     3
 0.0015678306     1    10     3     4
 -0.0023450139     1    10     3     6
 0.0006377226     1    10     3     7
 0.0021529630     1    10     3     8
 -0.0004943933     1    10     3     9
 0.2405367265     1    10     4     1
 -0.0184601303     1    10     4     2
 0.0013992245     1    10     4     3
 -0.0043196062     1    10     4     4
 0.0033122633     1    10     4     6
 -0.0013064467     1    10     4     7
 -0.0017540130     1    10     4     8
 -0.0030008350     1    10     4     9
 0.0008644255     1    10     5     5
 0.0001550525     1    10     5    11
 0.0757838180     1    10     6     1
 -0.0048575307     1    10     6     2
 0.0010466861     1    10     6     3
 -0.0027192014     1    10     6     4
 0.0012075643     1    10     6     6
 -0.0005441480     1    10     6     7
 -0.0004488267     1    10     6     8
 -0.0007387269     1    10     6     9
 -0.0515402451     1    10     7     1
 0.0023241891     1    10     7     2
 -0.0007306228     1    10     7     3
 0.0011719119     1    10     7     4
 -0.0006736093     1    10     7     6
 0.0007099003     1    10     7     7
 0.0002129030     1    10     7     8
 0.0001695026     1    10     7     9
 -0.0255488757     1    10     8     1
 0.0028537986     1    10     8     2
 0.0008135736     1    10     8     3
 0.0006167943     1    10     8     4
 -0.0007915417     1    10     8     6
 0.0003010848     1    10     8     7
 0.0007350577     1    10     8     8
 0.0012374215     1    10     8     9
 -0.0142277113     1    10     9     1
 -0.0000442666     1    10     9     2
 -0.0031588314     1    10     9     3
 0.0003157924     1    10     9     4
 0.0000696726     1    10     9     6
 -0.0006159597     1    10     9     7
 0.0008923148     1    10     9     8
 0.0003361078     1    10     9     9
 -0.4699562703     1    10    10     1
 0.0110859703     1    10    10     2
 -0.0026106307     1    10    10     3
 0.0018636352     1    10    10     4
 -0.0040616983     1    10    10     6
 0.0007937332     1    10    10     7
 0.0018681589     1    10    10     8
 0.0023936461     1    10    10     9
 0.0001118961     1    10    11     5
 0.0003931771     1    10    11    11
 0.0041940474     1    11     2     5
 -0.0017363444     1    11     3     5
 -0.0004646370     1    11     4     5
 -0.3030475456     1    11     5     1
 0.0239221345     1    11     5     2
 -0.0041800876     1    11     5     3
 0.0050491134     1    11     5     4
 -0.0057257592     1    11     5     6
 0.0006996372     1    11     5     7
 0.0040210066     1    11     5     8
 0.0044183569     1    11     5     9
 -0.0001550525     1    11     5    10
 0.0011982154     1    11     6     5
 -0.0006225070     1    11     7     5
 0.0012689335     1    11     8     5
 0.0011638350     1    11     9     5
 -0.0000431564     1    11    10     5
 -0.4949142121     1    11    11     1
 0.0113539696     1    11    11     2
 0.0000404696     1    11    11     3
 0.0045899710     1    11    11     4
 -0.0031515845     1    11    11     6
 0.0015103643     1    11    11     7
 0.0007273702     1    11    11     8
 0.0021548308     1    11    11     9
 -0.0003931771     1    11    11    10
 -0.9878662840     2     1     1     2
 0.0166196192     2     1     1     3
 -0.0784538954     2     1     1     4
 0.1448396167     2     1     1     6
 -0.0497616168     2     1     1     7
 -0.0638978097     2     1     1     8
 -0.0802962181     2     1     1     9
 -0.0293599756     2     1     1    10
 -0.0037544155     2     1     3     2
 -0.0296371220     2     1     3     3
 0.0032979203     2     1     3     4
 -0.0028450688     2     1     3     6
 -0.0106972277     2     1     3     7
 0.0058463759     2     1     3     8
 -0.0032604154     2     1     3     9
 -0.0090012476     2     1     3    10
 0.0039378549     2     1     4     2
 0.0037537098     2     1     4     3
 -0.0328006781     2     1     4     4
 -0.0109992699     2     1     4     6
 -0.0015122304     2     1     4     7
 0.0084198565     2     1     4     8
 -0.0014127189     2     1     4     9
 0.0157485761     2     1     4    10
 -0.0420323295     2     1     5     5
 -0.0197280871     2     1     5    11
 0.0012366011     2     1     6     2
 -0.0040043356     2     1     6     3
 -0.0112961438     2     1     6     4
 -0.0045678867     2     1     6     6
 -0.0026291962     2     1     6     7
 0.0042140429     2     1     6     8
 -0.0009419382     2     1     6     9
 0.0038467344     2     1     6    10
 -0.0014681775     2     1     7     2
 -0.0123469376     2     1     7     3
 -0.0020913286     2     1     7     4
 -0.0025116140     2     1     7     6
 -0.0045362279     2     1     7     7
 0.0033861136     2     1     7     8
 -0.0013878101     2     1     7     9
 -0.0019623276     2     1     7    10
 -0.0003536854     2     1     8     2
 0.0076763328     2     1     8     3
 0.0093639909     2     1     8     4
 0.0044189122     2     1     8     6
 0.0036726757     2     1     8     7
 -0.0045492495     2     1     8     8
 0.0014137684     2     1     8     9
 -0.0023841209     2     1     8    10
 -0.0004618897     2     1     9     2
 -0.0039736758     2     1     9     3
 -0.0022289044     2     1     9     4
 -0.0011681845     2     1     9     6
 -0.0015202577     2     1     9     7
 0.0015543157     2     1     9     8
 -0.0005309544     2     1     9     9
 0.0003451530     2     1     9    10
 -0.0039582173     2     1    10     2
 -0.0112268988     2     1    10     3
 0.0184601303     2     1    10     4
 0.0048575307     2     1    10     6
 -0.0023241891     2     1    10     7
 -0.0028537986     2     1    10     8
 0.0000442666     2     1    10     9
 -0.0110859703     2     1    10    10
 -0.0239221345     2     1    11     5
 -0.0113539696     2     1    11    11
 0.9878662840     2     2     1     1
 0.0037544155     2     2     1     3
 -0.0039378549     2     2     1     4
 -0.0012366011     2     2     1     6
 0.0014681775     2     2     1     7
 0.0003536854     2     2     1     8
 0.0004618897     2     2     1     9
 0.0039582173     2     2     1    10
 0.0037544155     2     2     3     1
 0.5144810067     2     2     3     3
 -0.0197701343     2     2     3     4
 0.0285823901     2     2     3     6
 0.0671430701     2     2     3     7
 -0.0264811279     2     2     3     8
 -0.0018438878     2     2     3     9
 0.0406812535     2     2     3    10
 -0.0039378549     2     2     4     1
 -0.0197701343     2     2     4     3
 0.5317800960     2     2     4     4
 0.0627446091     2     2     4     6
 0.0176076324     2     2     4     7
 -0.0381167291     2     2     4     8
 0.0190999661     2     2     4     9
 -0.0881316978     2     2     4    10
 0.5782958908     2     2     5     5
 0.1112294808     2     2     5    11
 -0.0012366011     2     2     6     1
 0.0285823901     2     2     6     3
 0.0627446091     2     2     6     4
 0.2977656914     2     2     6     6
 0.0049170578     2     2     6     7
 -0.0731617100     2     2     6     8
 -0.0141272646     2     2     6     9
 -0.0388340301     2     2     6    10
 0.0014681775     2     2     7     1
 0.0671430701     2     2     7     3
 0.0176076324     2     2     7     4
 0.0049170578     2     2     7     6
 0.2669759509     2     2     7     7
 -0.0461802090     2     2     7     8
 0.0285142741     2     2     7     9
 0.0342662169     2     2     7    10
 0.0003536854     2     2     8     1
 -0.0264811279     2     2     8     3
 -0.0381167291     2     2     8     4