&FCI NORB= 12,NELEC= 10,MS2=0,
 ORBSYM=1,1,1,1,1,1,1,1,1,1,1,1
 ISYM=1,
&END
 0.9845232445     1     1     2     2
 0.0664319195     1     1     2     4
 -0.0879228685     1     1     2     6
 -0.0533058472     1     1     2     8
 -0.1044464585     1     1     2    11
 0.8714173857     1     1     3     3
 0.0924412795     1     1     3     7
 0.0466199791     1     1     3    10
 -0.1943438715     1     1     3    12
 0.0664319195     1     1     4     2
 0.9494175528     1     1     4     4
 0.0499283898     1     1     4     6
 -0.1019573951     1     1     4     8
 0.1386236947     1     1     4    11
 0.9940577224     1     1     5     5
 -0.1747827153     1     1     5     9
 -0.0879228685     1     1     6     2
 0.0499283898     1     1     6     4
 0.2481021597     1     1     6     6
 0.0195157309     1     1     6     8
 0.0963511443     1     1     6    11
 0.0924412795     1     1     7     3
 0.2102287119     1     1     7     7
 0.0000000002     1     1     7     8
 0.0243070675     1     1     7    10
 0.0000000001     1     1     7    11
 -0.1044907390     1     1     7    12
 -0.0533058472     1     1     8     2
 -0.1019573951     1     1     8     4
 0.0195157309     1     1     8     6
 0.0000000002     1     1     8     7
 0.2759048057     1     1     8     8
 -0.0000000001     1     1     8    10
 -0.0157500969     1     1     8    11
 0.0000000002     1     1     8    12
 -0.1747827153     1     1     9     5
 0.3213656314     1     1     9     9
 0.0466199791     1     1    10     3
 0.0243070675     1     1    10     7
 -0.0000000001     1     1    10     8
 0.2768678374     1     1    10    10
 -0.0507601750     1     1    10    12
 -0.1044464585     1     1    11     2
 0.1386236947     1     1    11     4
 0.0963511443     1     1    11     6
 0.0000000001     1     1    11     7
 -0.0157500969     1     1    11     8
 0.3624009890     1     1    11    11
 -0.1943438715     1     1    12     3
 -0.1044907390     1     1    12     7
 0.0000000002     1     1    12     8
 -0.0507601750     1     1    12    10
 0.3843060500     1     1    12    12
 -0.9845232445     1     2     2     1
 -0.0070616862     1     2     2     4
 -0.0008717979     1     2     2     6
 0.0017415882     1     2     2     8
 -0.0028573169     1     2     2    11
 0.0312483969     1     2     3     3
 0.0066971051     1     2     3     7
 0.0049115520     1     2     3    10
 -0.0167923192     1     2     3    12
 -0.0664319195     1     2     4     1
 0.0360300536     1     2     4     4
 0.0045998408     1     2     4     6
 -0.0062869245     1     2     4     8
 0.0123697758     1     2     4    11
 0.0407487961     1     2     5     5
 -0.0129649857     1     2     5     9
 0.0879228685     1     2     6     1
 0.0043560405     1     2     6     4
 0.0007165546     1     2     6     6
 -0.0007855034     1     2     6     8
 0.0020194079     1     2     6    11
 0.0049000093     1     2     7     3
 0.0013665199     1     2     7     7
 -0.0000000001     1     2     7     8
 0.0009130472     1     2     7    10
 -0.0035884329     1     2     7    12
 0.0533058472     1     2     8     1
 -0.0044270373     1     2     8     4
 -0.0005005180     1     2     8     6
 -0.0000000001     1     2     8     7
 0.0014907474     1     2     8     8
 -0.0020848083     1     2     8    11
 -0.0099106922     1     2     9     5
 0.0044799495     1     2     9     9
 0.0033162751     1     2    10     3
 0.0008203686     1     2    10     7
 0.0007918695     1     2    10    10
 -0.0021273250     1     2    10    12
 0.1044464585     1     2    11     1
 0.0102928136     1     2    11     4
 0.0017249762     1     2    11     6
 -0.0025003981     1     2    11     8
 0.0047311211     1     2    11    11
 -0.0115227115     1     2    12     3
 -0.0033555286     1     2    12     7
 -0.0021941010     1     2    12    10
 0.0082325272     1     2    12    12
 0.0012553121     1     3     2     7
 0.0012473670     1     3     2    10
 -0.0040294402     1     3     2    12
 -0.8714173857     1     3     3     1
 -0.0312483969     1     3     3     2
 -0.0105814268     1     3     3     4
 0.0029890198     1     3     3     6
 0.0035874013     1     3     3     8
 0.0011643354     1     3     3    11
 -0.0004792972     1     3     4     7
 -0.0021852003     1     3     4    10
 0.0015008326     1     3     4    12
 0.0012390383     1     3     6     7
 -0.0000924079     1     3     6    10
 -0.0011832611     1     3     6    12
 -0.0924412795     1     3     7     1
 -0.0049000093     1     3     7     2
 -0.0017287609     1     3     7     4
 0.0020088363     1     3     7     6
 0.0012608802     1     3     7     8
 0.0013433661     1     3     7    11
 0.0006687552     1     3     8     7
 -0.0007652039     1     3     8    10
 -0.0017324151     1     3     8    12
 -0.0466199791     1     3    10     1
 -0.0033162751     1     3    10     2
 -0.0010864258     1     3    10     4
 0.0007767562     1     3    10     6
 -0.0007282358     1     3    10     8
 0.0019658072     1     3    10    11
 0.0007863890     1     3    11     7
 0.0007371840     1     3    11    10
 -0.0021275104     1     3    11    12
 0.1943438715     1     3    12     1
 0.0115227115     1     3    12     2
 0.0039964214     1     3    12     4
 -0.0032307698     1     3    12     6
 -0.0030955154     1     3    12     8
 -0.0038314257     1     3    12    11
 -0.0664319195     1     4     2     1
 0.0070616862     1     4     2     2
 -0.0002015857     1     4     2     6
 -0.0013426530     1     4     2     8
 0.0010223776     1     4     2    11
 0.0105814268     1     4     3     3
 0.0013748151     1     4     3     7
 -0.0010508048     1     4     3    10
 -0.0027859373     1     4     3    12
 -0.9494175528     1     4     4     1
 -0.0360300536     1     4     4     2
 0.0057713622     1     4     4     6
 0.0026194055     1     4     4     8
 0.0083477072     1     4     4    11
 0.0136028952     1     4     5     5
 -0.0041774799     1     4     5     9
 -0.0499283898     1     4     6     1
 -0.0043560405     1     4     6     2
 0.0020389172     1     4     6     6
 -0.0005369338     1     4     6     8
 0.0026064808     1     4     6    11
 0.0017287609     1     4     7     3
 0.0010082113     1     4     7     7
 -0.0000000001     1     4     7     8
 0.0008484016     1     4     7    10
 -0.0012335582     1     4     7    12
 0.1019573951     1     4     8     1
 0.0044270373     1     4     8     2
 -0.0018894079     1     4     8     6
 -0.0000000001     1     4     8     7
 -0.0016994728     1     4     8     8
 0.0000000001     1     4     8    10
 -0.0008180541     1     4     8    11
 -0.0000000001     1     4     8    12
 -0.0034985849     1     4     9     5
 0.0014751586     1     4     9     9
 0.0010864258     1     4    10     3
 0.0012875919     1     4    10     7
 0.0000000001     1     4    10     8
 -0.0000429177     1     4    10    10
 -0.0026662711     1     4    10    12
 -0.1386236947     1     4    11     1
 -0.0102928136     1     4    11     2
 0.0035359480     1     4    11     6
 0.0015574874     1     4    11     8
 0.0051853134     1     4    11    11
 -0.0039964214     1     4    12     3
 -0.0013127321     1     4    12     7
 -0.0000000001     1     4    12     8
 -0.0016401030     1     4    12    10
 0.0034619980     1     4    12    12
 -0.0019873152     1     5     2     9
 -0.0004282272     1     5     4     9
 -0.9940577224     1     5     5     1
 -0.0407487961     1     5     5     2
 -0.0136028952     1     5     5     4
 0.0053034707     1     5     5     6
 0.0064207720     1     5     5     8
 0.0068294342     1     5     5    11
 -0.0017720948     1     5     6     9
 -0.0001969886     1     5     8     9
 0.1747827153     1     5     9     1
 0.0099106922     1     5     9     2
 0.0034985849     1     5     9     4
 -0.0035254427     1     5     9     6
 -0.0022596068     1     5     9     8
 -0.0019026798     1     5     9    11
 0.0004386450     1     5    11     9
 0.0879228685     1     6     2     1
 0.0008717979     1     6     2     2
 0.0002015857     1     6     2     4
 -0.0002958280     1     6     2     8
 0.0003131050     1     6     2    11
 -0.0029890198     1     6     3     3
 -0.0007553870     1     6     3     7
 -0.0008714754     1     6     3    10
 0.0020486663     1     6     3    12
 -0.0499283898     1     6     4     1
 -0.0045998408     1     6     4     2
 -0.0057713622     1     6     4     4
 0.0013503667     1     6     4     8
 -0.0009485612     1     6     4    11
 -0.0053034707     1     6     5     5
 0.0017208611     1     6     5     9
 -0.2481021597     1     6     6     1
 -0.0007165546     1     6     6     2
 -0.0020389172     1     6     6     4
 0.0002993349     1     6     6     8
 -0.0004150076     1     6     6    11
 -0.0020088363     1     6     7     3
 -0.0003914384     1     6     7     7
 -0.0002424483     1     6     7    10
 0.0011656084     1     6     7    12
 -0.0195157309     1     6     8     1
 0.0005005180     1     6     8     2
 0.0018894079     1     6     8     4
 -0.0006587119     1     6     8     8
 0.0006596871     1     6     8    11
 0.0035254427     1     6     9     5
 -0.0012846319     1     6     9     9
 -0.0007767562     1     6    10     3
 -0.0000342226     1     6    10     7
 -0.0001687760     1     6    10    10
 0.0001642350     1     6    10    12
 -0.0963511443     1     6    11     1
 -0.0017249762     1     6    11     2
 -0.0035359480     1     6    11     4
 0.0009538500     1     6    11     8
 -0.0006318073     1     6    11    11
 0.0032307698     1     6    12     3
 0.0007571105     1     6    12     7
 0.0004016364     1     6    12    10
 -0.0018298791     1     6    12    12
 -0.0012553121     1     7     2     3
 0.0000890367     1     7     2    10
 -0.0002145694     1     7     2    12
 -0.0924412795     1     7     3     1
 -0.0066971051     1     7     3     2
 -0.0013748151     1     7     3     4
 0.0007553870     1     7     3     6
 0.0006033154     1     7     3     8
 0.0005232276     1     7     3    11
 0.0004792972     1     7     4     3
 -0.0004345314     1     7     4    10
 0.0000825228     1     7     4    12
 -0.0012390383     1     7     6     3
 -0.0002079858     1     7     6    10
 0.0004073876     1     7     6    12
 -0.2102287119     1     7     7     1
 -0.0013665199     1     7     7     2
 -0.0010082113     1     7     7     4
 0.0003914384     1     7     7     6
 0.0004039831     1     7     7     8
 0.0001268953     1     7     7    11
 -0.0000000002     1     7     8     1
 0.0000000001     1     7     8     2
 -0.0006687552     1     7     8     3
 0.0000000001     1     7     8     4
 -0.0002740467     1     7     8    10
 -0.0000191789     1     7     8    12
 -0.0243070675     1     7    10     1
 -0.0008203686     1     7    10     2
 -0.0012875919     1     7    10     4
 0.0000342226     1     7    10     6
 0.0000314699     1     7    10     8
 0.0000678061     1     7    10    11
 -0.0000000001     1     7    11     1
 -0.0007863890     1     7    11     3
 0.0000445248     1     7    11    10
 -0.0000438450     1     7    11    12
 0.1044907390     1     7    12     1
 0.0033555286     1     7    12     2
 0.0013127321     1     7    12     4
 -0.0007571105     1     7    12     6
 -0.0007934434     1     7    12     8
 -0.0008476520     1     7    12    11
 0.0533058472     1     8     2     1
 -0.0017415882     1     8     2     2
 0.0013426530     1     8     2     4
 0.0002958280     1     8     2     6
 0.0004569643     1     8     2    11
 -0.0035874013     1     8     3     3
 -0.0006033154     1     8     3     7
 -0.0000631877     1     8     3    10
 0.0014326157     1     8     3    12
 0.1019573951     1     8     4     1
 0.0062869245     1     8     4     2
 -0.0026194055     1     8     4     4
 -0.0013503667     1     8     4     6
 -0.0023887426     1     8     4    11
 -0.0064207720     1     8     5     5
 0.0020818922     1     8     5     9
 -0.0195157309     1     8     6     1
 0.0007855034     1     8     6     2
 0.0005369338     1     8     6     4
 -0.0002993349     1     8     6     6
 -0.0002952572     1     8     6    11
 -0.0000000002     1     8     7     1
 0.0000000001     1     8     7     2
 -0.0012608802     1     8     7     3
 0.0000000001     1     8     7     4
 -0.0004039831     1     8     7     7
 -0.0003052536     1     8     7    10
 0.0007750267     1     8     7    12
 -0.2759048057     1     8     8     1
 -0.0014907474     1     8     8     2
 0.0016994728     1     8     8     4
 0.0006587119     1     8     8     6
 0.0009184246     1     8     8    11
 0.0022596068     1     8     9     5
 -0.0008534944     1     8     9     9
 0.0000000001     1     8    10     1
 0.0007282358     1     8    10     3
 -0.0000000001     1     8    10     4
 -0.0000314699     1     8    10     7
 0.0001494708     1     8    10    10
 -0.0000088915     1     8    10    12
 0.0157500969     1     8    11     1
 0.0025003981     1     8    11     2
 -0.0015574874     1     8    11     4
 -0.0009538500     1     8    11     6
 -0.0016748787     1     8    11    11
 -0.0000000002     1     8    12     1
 0.0030955154     1     8    12     3
 0.0000000001     1     8    12     4
 0.0007934434     1     8    12     7
 0.0006759378     1     8    12    10
 -0.0019955730     1     8    12    12
 0.0019873152     1     9     2     5
 0.0004282272     1     9     4     5
 0.1747827153     1     9     5     1
 0.0129649857     1     9     5     2
 0.0041774799     1     9     5     4
 -0.0017208611     1     9     5     6
 -0.0020818922     1     9     5     8
 -0.0022606739     1     9     5    11
 0.0017720948     1     9     6     5
 0.0001969886     1     9     8     5
 -0.3213656314     1     9     9     1
 -0.0044799495     1     9     9     2
 -0.0014751586     1     9     9     4
 0.0012846319     1     9     9     6
 0.0008534944     1     9     9     8
 0.0007460557     1     9     9    11
 -0.0004386450     1     9    11     5
 -0.0012473670     1    10     2     3
 -0.0000890367     1    10     2     7
 0.0000709900     1    10     2    12
 -0.0466199791     1    10     3     1
 -0.0049115520     1    10     3     2
 0.0010508048     1    10     3     4
 0.0008714754     1    10     3     6
 0.0000631877     1    10     3     8
 0.0012213997     1    10     3    11
 0.0021852003     1    10     4     3
 0.0004345314     1    10     4     7
 -0.0010123757     1    10     4    12
 0.0000924079     1    10     6     3
 0.0002079858     1    10     6     7
 -0.0002374552     1    10     6    12
 -0.0243070675     1    10     7     1
 -0.0009130472     1    10     7     2
 -0.0008484016     1    10     7     4
 0.0002424483     1    10     7     6
 0.0003052536     1    10     7     8
 0.0000237438     1    10     7    11
 0.0000000001     1    10     8     1
 0.0007652039     1    10     8     3
 -0.0000000001     1    10     8     4
 0.0002740467     1    10     8     7
 -0.0006845922     1    10     8    12
 -0.2768678374     1    10    10     1
 -0.0007918695     1    10    10     2
 0.0000429177     1    10    10     4
 0.0001687760     1    10    10     6
 -0.0001494708     1    10    10     8
 0.0004217715     1    10    10    11
 -0.0007371840     1    10    11     3
 -0.0000445248     1    10    11     7
 0.0000765768     1    10    11    12
 0.0507601750     1    10    12     1
 0.0021941010     1    10    12     2
 0.0016401030     1    10    12     4
 -0.0004016364     1    10    12     6
 -0.0006759378     1    10    12     8
 -0.0002867137     1    10    12    11
 0.1044464585     1    11     2     1
 0.0028573169     1    11     2     2
 -0.0010223776     1    11     2     4
 -0.0003131050     1    11     2     6
 -0.0004569643     1    11     2     8
 -0.0011643354     1    11     3     3
 -0.0005232276     1    11     3     7
 -0.0012213997     1    11     3    10
 0.0016651954     1    11     3    12
 -0.1386236947     1    11     4     1
 -0.0123697758     1    11     4     2
 -0.0083477072     1    11     4     4
 0.0009485612     1    11     4     6
 0.0023887426     1    11     4     8
 -0.0068294342     1    11     5     5
 0.0022606739     1    11     5     9
 -0.0963511443     1    11     6     1
 -0.0020194079     1    11     6     2
 -0.0026064808     1    11     6     4
 0.0004150076     1    11     6     6
 0.0002952572     1    11     6     8
 -0.0000000001     1    11     7     1
 -0.0013433661     1    11     7     3
 -0.0001268953     1    11     7     7
 -0.0000237438     1    11     7    10
 0.0008046453     1    11     7    12
 0.0157500969     1    11     8     1
 0.0020848083     1    11     8     2
 0.0008180541     1    11     8     4
 -0.0006596871     1    11     8     6
 -0.0009184246     1    11     8     8
 0.0019026798     1    11     9     5
 -0.0007460557     1    11     9     9
 -0.0019658072     1    11    10     3
 -0.0000678061     1    11    10     7
 -0.0004217715     1    11    10    10
 0.0003634620     1    11    10    12
 -0.3624009890     1    11    11     1
 -0.0047311211     1    11    11     2
 -0.0051853134     1    11    11     4
 0.0006318073     1    11    11     6
 0.0016748787     1    11    11     8
 0.0038314257     1    11    12     3
 0.0008476520     1    11    12     7
 0.0002867137     1    11    12    10
 -0.0020001279     1    11    12    12
 0.0040294402     1    12     2     3
 0.0002145694     1    12     2     7
 -0.0000709900     1    12     2    10
 0.1943438715     1    12     3     1
 0.0167923192     1    12     3     2
 0.0027859373     1    12     3     4
 -0.0020486663     1    12     3     6
 -0.0014326157     1    12     3     8
 -0.0016651954     1    12     3    11
 -0.0015008326     1    12     4     3
 -0.0000825228     1    12     4     7
 0.0010123757     1    12     4    10
 0.0011832611     1    12     6     3
 -0.0004073876     1    12     6     7
 0.0002374552     1    12     6    10
 0.1044907390     1    12     7     1
 0.0035884329     1    12     7     2
 0.0012335582     1    12     7     4
 -0.0011656084     1    12     7     6
 -0.0007750267     1    12     7     8
 -0.0008046453     1    12     7    11
 -0.0000000002     1    12     8     1
 0.0017324151     1    12     8     3
 0.0000000001     1    12     8     4
 0.0000191789     1    12     8     7
 0.0006845922     1    12     8    10
 0.0507601750     1    12    10     1
 0.0021273250     1    12    10     2
 0.0026662711     1    12    10     4
 -0.0001642350     1    12    10     6
 0.0000088915     1    12    10     8
 -0.0003634620     1    12    10    11
 0.0021275104     1    12    11     3
 0.0000438450     1    12    11     7
 -0.0000765768     1    12    11    10
 -0.3843060500     1    12    12     1
 -0.0082325272     1    12    12     2
 -0.0034619980     1    12    12     4
 0.0018298791     1    12    12     6
 0.0019955730     1    12    12     8
 0.0020001279     1    12    12    11
 -0.9845232445     2     1     1     2
 -0.0664319195     2     1     1     4
 0.0879228685     2     1     1     6
 0.0533058472     2     1     1     8
 0.1044464585     2     1     1    11
 0.0312483969     2     1     3     3
 0.0049000093     2     1     3     7
 0.0033162751     2     1     3    10
 -0.0115227115     2     1     3    12
 -0.0070616862     2     1     4     2
 0.0360300536     2     1     4     4
 0.0043560405     2     1     4     6
 -0.0044270373     2     1     4     8
 0.0102928136     2     1     4    11
 0.0407487961     2     1     5     5
 -0.0099106922     2     1     5     9
 -0.0008717979     2     1     6     2
 0.0045998408     2     1     6     4
 0.0007165546     2     1     6     6
 -0.0005005179     2     1     6     8
 0.0017249762     2     1     6    11
 0.0066971051     2     1     7     3
 0.0013665199     2     1     7     7
 0.0008203686     2     1     7    10
 -0.0033555286     2     1     7    12
 0.0017415882     2     1     8     2
 -0.0062869245     2     1     8     4
 -0.0007855034     2     1     8     6
 0.0014907474     2     1     8     8
 -0.0025003981     2     1     8    11
 -0.0129649857     2     1     9     5
 0.0044799495     2     1     9     9
 0.0049115520     2     1    10     3
 0.0009130472     2     1    10     7
 0.0007918695     2     1    10    10
 -0.0021941010     2     1    10    12
 -0.0028573169     2     1    11     2
 0.0123697758     2     1    11     4
 0.0020194079     2     1    11     6
 -0.0020848083     2     1    11     8
 0.0047311211     2     1    11    11
 -0.0167923192     2     1    12     3
 -0.0035884329     2     1    12     7
 -0.0021273250     2     1    12    10
 0.0082325272     2     1    12    12
 0.9845232445     2     2     1     1
 0.0070616862     2     2     1     4
 0.0008717979     2     2     1     6
 -0.0017415882     2     2     1     8
 0.0028573169     2     2     1    11
 0.5287379424     2     2     3     3
 0.0400801155     2     2     3     7
 0.0114257597     2     2     3    10
 -0.0735970275     2     2     3    12
 0.0070616862     2     2     4     1
 0.5504666851     2     2     4     4
 0.0222500558     2     2     4     6
 -0.0445791388     2     2     4     8
 0.0558436463     2     2     4    11
 0.5767324702     2     2     5     5
 -0.0761561808     2     2     5     9
 0.0008717979     2     2     6     1
 0.0222500558     2     2     6     4
 0.2311636201     2     2     6     6
 -0.0000000002     2     2     6     7
 0.0114364572     2     2     6     8
 0.0000000001     2     2     6    10
 0.0668016271     2     2     6    11
 -0.0000000002     2     2     6    12
 0.0400801155     2     2     7     3
 -0.0000000002     2     2     7     6
 0.1997677266     2     2     7     7
 -0.0000000010     2     2     7     8
 0.0190946534     2     2     7    10
 -0.0000000004     2     2     7    11
 -0.0721771809     2     2     7    12
 -0.0017415882     2     2     8     1
 -0.0445791388     2     2     8     4
 0.0114364572     2     2     8     6
 -0.0000000010     2     2     8     7
 0.2476410387     2     2     8     8
 0.0000000007     2     2     8    10
 -0.0047593917     2     2     8    11
 -0.0000000008     2     2     8    12
 -0.0761561808     2     2     9     5
 0.2768466880     2     2     9     9
 0.0114257597     2     2    10     3
 0.0000000001     2     2    10     6
 0.0190946534     2     2    10     7
 0.0000000007     2     2    10     8
 0.2641110936     2     2    10    10
 0.0000000003     2     2    10    11
 -0.0340336516     2     2    10    12
 0.0028573169     2     2    11     1
 0.0558436463     2     2    11     4
 0.0668016271     2     2    11     6
 -0.0000000004     2     2    11     7
 -0.0047593917     2     2    11     8
 0.0000000003     2     2    11    10
 0.3033812245     2     2    11    11
 -0.0000000002     2     2    11    12
 -0.0735970275     2     2    12     3
 -0.0000000002     2     2    12     6
 -0.0721771809     2     2    12     7
 -0.0000000008     2     2    12     8
 -0.0340336516     2     2    12    10
 -0.0000000002     2     2    12    11
 0.3093090907     2     2    12    12
 -0.0012553121     2     3     1     7
 -0.0012473670     2     3     1    10
 0.0040294402     2     3     1    12
 -0.0312483969     2     3     3     1
 -0.5287379424     2     3     3     2
 -0.0014847159     2     3     3     4
 0.0404167937     2     3     3     6
 0.0235807190     2     3     3     8
 0.0544460143     2     3     3    11
 0.0040750980     2     3     4     7
 0.0157455252     2     3     4    10
 -0.0112587744     2     3     4    12
 0.0000000001     2     3     6     6
 -0.0205084813     2     3     6     7
 0.0000000004     2     3     6     8
 -0.0024335277     2     3     6    10
 0.0181682543     2     3     6    12
 -0.0066971051     2     3     7     1
 -0.0400801155     2     3     7     2
 0.0004732674     2     3     7     4
 -0.0153580621     2     3     7     6
 -0.0039736351     2     3     7     8
 0.0000000001     2     3     7    10
 -0.0043838751     2     3     7    11
 0.0000000001     2     3     7    12
 0.0000000004     2     3     8     6
 -0.0072901210     2     3     8     7
 -0.0000000004     2     3     8     8
 0.0139200074     2     3     8    10
 -0.0000000006     2     3     8    11
 0.0186226841     2     3     8    12
 -0.0049115520     2     3    10     1
 -0.0114257597     2     3    10     2
 0.0029116013     2     3    10     4
 -0.0013339389     2     3    10     6
 0.0000000001     2     3    10     7
 0.0160783958     2     3    10     8
 -0.0000000005     2     3    10    10
 -0.0141291626     2     3    10    11
 -0.0000000001     2     3    10    12
 0.0000000001     2     3    11     6
 -0.0113276655     2     3    11     7
 -0.0000000006     2     3    11     8
 -0.0148151507     2     3    11    10
 -0.0000000003     2     3    11    11
 0.0299772559     2     3    11    12
 0.0167923192     2     3    12     1
 0.0735970275     2     3    12     2
 -0.0008244922     2     3    12     4
 0.0086245390     2     3    12     6
 0.0000000001     2     3    12     7
 0.0119565513     2     3    12     8
 -0.0000000001     2     3    12    10
 0.0174688638     2     3    12    11
 0.0000000003     2     3    12    12
 0.0664319195     2     4     1     1
 -0.0070616862     2     4     1     2
 0.0002015857     2     4     1     6
 0.0013426530     2     4     1     8
 -0.0010223776     2     4     1    11
 0.0014847159     2     4     3     3
 0.0036564739     2     4     3     7
 0.0128902666     2     4     3    10
 -0.0105693522     2     4     3    12
 -0.0360300536     2     4     4     1
 -0.5504666851     2     4     4     2
 0.0411679477     2     4     4     6
 0.0181401679     2     4     4     8
 0.0479277486     2     4     4    11
 0.0037272580     2     4     5     5
 -0.0023700554     2     4     5     9
 -0.0045998408     2     4     6     1
 -0.0222500558     2     4     6     2
 -0.0089069132     2     4     6     6
 -0.0000000001     2     4     6     7
 0.0137879451     2     4     6     8
 -0.0086483846     2     4     6    11
 -0.0000000001     2     4     6    12
 -0.0004732674     2     4     7     3
 -0.0000000001     2     4     7     6
 -0.0069424634     2     4     7     7
 -0.0000000003     2     4     7     8
 -0.0088698767     2     4     7    10
 -0.0000000001     2     4     7    11
 0.0002831130     2     4     7    12
 0.0062869245     2     4     8     1
 0.0445791388     2     4     8     2
 0.0067663538     2     4     8     6
 -0.0000000003     2     4     8     7
 0.0136908699     2     4     8     8
 0.0000000002     2     4     8    10
 -0.0130458800     2     4     8    11
 -0.0000000003     2     4     8    12
 -0.0013388546     2     4     9     5
 0.0031891783     2     4     9     9
 -0.0029116013     2     4    10     3
 -0.0103607183     2     4    10     7
 0.0000000002     2     4    10     8
 0.0052611787     2     4    10    10
 0.0000000001     2     4    10    11
 0.0155086041     2     4    10    12
 -0.0123697758     2     4    11     1
 -0.0558436463     2     4    11     2
 -0.0048792498     2     4    11     6
 -0.0000000001     2     4    11     7
 -0.0024959950     2     4    11     8
 0.0000000001     2     4    11    10
 -0.0074969225     2     4    11    11
 -0.0000000001     2     4    11    12
 0.0008244922     2     4    12     3
 -0.0000000001     2     4    12     6
 0.0010493696     2     4    12     7
 -0.0000000003     2     4    12     8
 0.0135090425     2     4    12    10
 -0.0000000001     2     4    12    11
 -0.0057136711     2     4    12    12
 0.0019873152     2     5     1     9
 -0.0008584073     2     5     4     9
 -0.0407487961     2     5     5     1
 -0.5767324702     2     5     5     2
 -0.0037272580     2     5     5     4
 0.0410000111     2     5     5     6
 0.0163881974     2     5     5     8
 0.0386841290     2     5     5    11
 0.0186256971     2     5     6     9
 0.0022153684     2     5     8     9
 0.0129649857     2     5     9     1
 0.0761561808     2     5     9     2
 0.0013388546     2     5     9     4
 0.0093135417     2     5     9     6
 -0.0021298497     2     5     9     8
 -0.0127785151     2     5     9    11
 -0.0027014498     2     5    11     9
 -0.0879228685     2     6     1     1
 -0.0008717979     2     6     1     2
 -0.0002015857     2     6     1     4
 0.0002958280     2     6     1     8
 -0.0003131050     2     6     1    11
 -0.0404167937     2     6     3     3
 -0.0048013616     2     6     3     7
 0.0000000001     2     6     3     8
 -0.0008694712     2     6     3    10
 0.0090559850     2     6     3    12
 -0.0043560405     2     6     4     1
 -0.0222500558     2     6     4     2
 -0.0411679477     2     6     4     4
 -0.0000000001     2     6     4     7
 0.0068305969     2     6     4     8
 0.0000000001     2     6     4    10
 -0.0036749217     2     6     4    11
 -0.0000000001     2     6     4    12
 -0.0410000111     2     6     5     5
 0.0091712629     2     6     5     9
 -0.0007165546     2     6     6     1
 -0.2311636201     2     6     6     2
 -0.0000000001     2     6     6     3
 0.0089069132     2     6     6     4
 0.0000000001     2     6     6     7
 0.0005750487     2     6     6     8
 -0.0000000001     2     6     6    10
 -0.0020416453     2     6     6    11
 0.0000000001     2     6     6    12
 0.0000000002     2     6     7     2
 0.0153580621     2     6     7     3
 0.0000000001     2     6     7     4
 -0.0018055911     2     6     7     7
 -0.0000000001     2     6     7     8
 -0.0021081246     2     6     7    10
 -0.0000000001     2     6     7    11
 0.0063825903     2     6     7    12
 0.0007855034     2     6     8     1
 -0.0114364572     2     6     8     2
 -0.0000000004     2     6     8     3
 -0.0067663538     2     6     8     4
 0.0000000003     2     6     8     7
 -0.0041264488     2     6     8     8
 -0.0000000002     2     6     8    10