&FCI NORB= 11,NELEC= 16,MS2=0,
 ORBSYM=1,1,1,1,1,1,1,1,1,1,1
 ISYM=1,
&END
 0.3951872329     1     1     2     2
 0.0051578301     1     1     2     4
 0.0013624514     1     1     2    11
 0.5960694621     1     1     3     3
 -0.1105731086     1     1     3     6
 -0.0333482856     1     1     3     9
 0.0051578301     1     1     4     2
 0.4825145958     1     1     4     4
 0.0570550384     1     1     4    11
 0.4846743541     1     1     5     5
 -0.1105731086     1     1     6     3
 0.5630050189     1     1     6     6
 -0.0468118945     1     1     6     9
 0.4497773270     1     1     7     7
 0.5353703232     1     1     8     8
 -0.0333482856     1     1     9     3
 -0.0468118945     1     1     9     6
 0.2242290744     1     1     9     9
 0.4010895277     1     1    10    10
 0.0013624514     1     1    11     2
 0.0570550384     1     1    11     4
 0.2051010017     1     1    11    11
 -0.3951872329     1     2     2     1
 0.0042158165     1     2     2     3
 -0.0129415049     1     2     2     6
 0.0025646906     1     2     2     9
 0.1502359872     1     2     3     4
 0.0336291780     1     2     3    11
 -0.0051578301     1     2     4     1
 0.1503504221     1     2     4     3
 0.1293463655     1     2     4     6
 -0.0414366007     1     2     4     9
 -0.1662646688     1     2     5     7
 0.1296901884     1     2     6     4
 0.0099467525     1     2     6    11
 -0.1660562090     1     2     7     5
 0.1120682819     1     2     8    10
 -0.0414947538     1     2     9     4
 -0.0373536245     1     2     9    11
 0.1118142373     1     2    10     8
 -0.0013624514     1     2    11     1
 0.0336452589     1     2    11     3
 0.0098556041     1     2    11     6
 -0.0373350700     1     2    11     9
 -0.0042158165     1     3     2     2
 -0.0001148138     1     3     2     4
 -0.0000262041     1     3     2    11
 -0.5960694621     1     3     3     1
 -0.0091848926     1     3     3     6
 0.0026622242     1     3     3     9
 -0.1503504221     1     3     4     2
 0.0052335785     1     3     4     4
 0.0010916067     1     3     4    11
 0.0117334351     1     3     5     5
 0.1105731086     1     3     6     1
 0.0177474315     1     3     6     6
 -0.0049083568     1     3     6     9
 0.0086531994     1     3     7     7
 0.0134912982     1     3     8     8
 0.0333482856     1     3     9     1
 -0.0023665823     1     3     9     6
 0.0009288328     1     3     9     9
 0.0068856853     1     3    10    10
 -0.0336452589     1     3    11     2
 0.0007640949     1     3    11     4
 0.0005725425     1     3    11    11
 -0.0051578301     1     4     2     1
 0.0001148138     1     4     2     3
 -0.0003438695     1     4     2     6
 0.0000691571     1     4     2     9
 -0.1502359872     1     4     3     2
 0.0001939521     1     4     3    11
 -0.4825145958     1     4     4     1
 -0.0052335785     1     4     4     3
 0.0026623174     1     4     4     6
 0.0001208412     1     4     4     9
 -0.0059683944     1     4     5     7
 -0.1296901884     1     4     6     2
 0.0001469913     1     4     6    11
 -0.0080508668     1     4     7     5
 0.0046488701     1     4     8    10
 0.0414947538     1     4     9     2
 0.0004234473     1     4     9    11
 0.0056026982     1     4    10     8
 -0.0570550384     1     4    11     1
 -0.0007640949     1     4    11     3
 0.0005652841     1     4    11     6
 0.0004827153     1     4    11     9
 -0.0002050372     1     5     2     7
 0.0020738687     1     5     4     7
 -0.4846743541     1     5     5     1
 -0.0117334351     1     5     5     3
 -0.0037371722     1     5     5     6
 0.0018482208     1     5     5     9
 0.1660562090     1     5     7     2
 0.0080508668     1     5     7     4
 0.0015931950     1     5     7    11
 0.0000019945     1     5    11     7
 0.0129415049     1     6     2     2
 0.0003438695     1     6     2     4
 0.0000931103     1     6     2    11
 0.1105731086     1     6     3     1
 0.0091848926     1     6     3     3
 -0.0023156242     1     6     3     9
 -0.1293463655     1     6     4     2
 -0.0026623174     1     6     4     4
 -0.0004204125     1     6     4    11
 0.0037371722     1     6     5     5
 -0.5630050189     1     6     6     1
 -0.0177474315     1     6     6     3
 0.0043532998     1     6     6     9
 0.0017807945     1     6     7     7
 0.0042566231     1     6     8     8
 0.0468118945     1     6     9     1
 0.0023665823     1     6     9     3
 -0.0004041452     1     6     9     9
 0.0008988455     1     6    10    10
 -0.0098556041     1     6    11     2
 -0.0005652841     1     6    11     4
 -0.0006114250     1     6    11    11
 0.0002050372     1     7     2     5
 -0.0020738687     1     7     4     5
 0.1662646688     1     7     5     2
 0.0059683944     1     7     5     4
 0.0016053631     1     7     5    11
 -0.4497773270     1     7     7     1
 -0.0086531994     1     7     7     3
 -0.0017807945     1     7     7     6
 0.0014554004     1     7     7     9
 -0.0000019945     1     7    11     5
 0.0002372684     1     8     2    10
 -0.0016096576     1     8     4    10
 -0.5353703232     1     8     8     1
 -0.0134912982     1     8     8     3
 -0.0042566231     1     8     8     6
 0.0037868239     1     8     8     9
 -0.1118142373     1     8    10     2
 -0.0056026982     1     8    10     4
 -0.0019142432     1     8    10    11
 -0.0001515846     1     8    11    10
 -0.0025646906     1     9     2     2
 -0.0000691571     1     9     2     4
 -0.0000202989     1     9     2    11
 0.0333482856     1     9     3     1
 -0.0026622242     1     9     3     3
 0.0023156242     1     9     3     6
 0.0414366007     1     9     4     2
 -0.0001208412     1     9     4     4
 -0.0000462714     1     9     4    11
 -0.0018482208     1     9     5     5
 0.0468118945     1     9     6     1
 0.0049083568     1     9     6     3
 -0.0043532998     1     9     6     6
 -0.0014554004     1     9     7     7
 -0.0037868239     1     9     8     8
 -0.2242290744     1     9     9     1
 -0.0009288328     1     9     9     3
 0.0004041452     1     9     9     6
 -0.0016166029     1     9    10    10
 0.0373350700     1     9    11     2
 -0.0004827153     1     9    11     4
 -0.0000567344     1     9    11    11
 -0.0002372684     1    10     2     8
 0.0016096576     1    10     4     8
 -0.1120682819     1    10     8     2
 -0.0046488701     1    10     8     4
 -0.0018415821     1    10     8    11
 -0.4010895277     1    10    10     1
 -0.0068856853     1    10    10     3
 -0.0008988455     1    10    10     6
 0.0016166029     1    10    10     9
 0.0001515846     1    10    11     8
 -0.0013624514     1    11     2     1
 0.0000262041     1    11     2     3
 -0.0000931103     1    11     2     6
 0.0000202989     1    11     2     9
 -0.0336291780     1    11     3     2
 -0.0001939521     1    11     3     4
 -0.0570550384     1    11     4     1
 -0.0010916067     1    11     4     3
 0.0004204125     1    11     4     6
 0.0000462714     1    11     4     9
 -0.0016053631     1    11     5     7
 -0.0099467525     1    11     6     2
 -0.0001469913     1    11     6     4
 -0.0015931950     1    11     7     5
 0.0018415821     1    11     8    10
 0.0373536245     1    11     9     2
 -0.0004234473     1    11     9     4
 0.0019142432     1    11    10     8
 -0.2051010017     1    11    11     1
 -0.0005725425     1    11    11     3
 0.0006114250     1    11    11     6
 0.0000567344     1    11    11     9
 -0.3951872329     2     1     1     2
 -0.0051578301     2     1     1     4
 -0.0013624514     2     1     1    11
 0.0042158165     2     1     3     2
 0.1503504221     2     1     3     4
 0.0336452589     2     1     3    11
 0.1502359872     2     1     4     3
 0.1296901884     2     1     4     6
 -0.0414947538     2     1     4     9
 -0.1660562090     2     1     5     7
 -0.0129415049     2     1     6     2
 0.1293463655     2     1     6     4
 0.0098556041     2     1     6    11
 -0.1662646688     2     1     7     5
 0.1118142373     2     1     8    10
 0.0025646906     2     1     9     2
 -0.0414366007     2     1     9     4
 -0.0373350700     2     1     9    11
 0.1120682819     2     1    10     8
 0.0336291780     2     1    11     3
 0.0099467525     2     1    11     6
 -0.0373536245     2     1    11     9
 0.3951872329     2     2     1     1
 -0.0042158165     2     2     1     3
 0.0129415049     2     2     1     6
 -0.0025646906     2     2     1     9
 -0.0042158165     2     2     3     1
 0.5960930707     2     2     3     3
 -0.1107717509     2     2     3     6
 -0.0333019761     2     2     3     9
 0.4824122189     2     2     4     4
 0.0570162111     2     2     4    11
 0.4849337983     2     2     5     5
 0.0129415049     2     2     6     1
 -0.1107717509     2     2     6     3
 0.5638340863     2     2     6     6
 -0.0469774175     2     2     6     9
 0.4496283169     2     2     7     7
 0.5357452606     2     2     8     8
 -0.0025646906     2     2     9     1
 -0.0333019761     2     2     9     3
 -0.0469774175     2     2     9     6
 0.2242666159     2     2     9     9
 0.4009483839     2     2    10    10
 0.0570162111     2     2    11     4
 0.2050942526     2     2    11    11
 0.0042158165     2     3     1     2
 0.0001148138     2     3     1     4
 0.0000262041     2     3     1    11
 -0.5960930707     2     3     3     2
 -0.0037838810     2     3     3     4
 -0.0013681750     2     3     3    11
 -0.1502359872     2     3     4     1
 0.0110066785     2     3     4     6
 -0.0025301830     2     3     4     9
 -0.0132405785     2     3     5     7
 0.1107717509     2     3     6     2
 0.0120027752     2     3     6     4
 0.0029271356     2     3     6    11
 -0.0108859640     2     3     7     5
 0.0114297344     2     3     8    10
 0.0333019761     2     3     9     2
 -0.0017069039     2     3     9     4
 -0.0011591848     2     3     9    11
 0.0077478970     2     3    10     8
 -0.0336291780     2     3    11     1
 0.0015931460     2     3    11     6
 -0.0011699158     2     3    11     9
 0.0051578301     2     4     1     1
 -0.0001148138     2     4     1     3
 0.0003438695     2     4     1     6
 -0.0000691571     2     4     1     9
 -0.1503504221     2     4     3     1
 0.0037838810     2     4     3     3
 -0.0009926747     2     4     3     6
 -0.0006004531     2     4     3     9
 -0.4824122189     2     4     4     2
 -0.0000408974     2     4     4    11
 0.0097896180     2     4     5     5
 -0.1293463655     2     4     6     1
 -0.0120027752     2     4     6     3
 0.0162925210     2     4     6     6
 -0.0016216009     2     4     6     9
 0.0094333081     2     4     7     7
 0.0116285996     2     4     8     8
 0.0414366007     2     4     9     1
 0.0017069039     2     4     9     3
 -0.0026757366     2     4     9     6
 0.0006691373     2     4     9     9
 0.0068792157     2     4    10    10
 -0.0570162111     2     4    11     2
 -0.0000242778     2     4    11    11
 0.0002050372     2     5     1     7
 -0.0023387579     2     5     3     7
 -0.4849337983     2     5     5     2
 -0.0097896180     2     5     5     4
 -0.0026131083     2     5     5    11
 0.0009747470     2     5     6     7
 0.1662646688     2     5     7     1
 0.0108859640     2     5     7     3
 -0.0033769847     2     5     7     6
 -0.0004976486     2     5     7     9
 -0.0003679132     2     5     9     7
 -0.0129415049     2     6     1     2
 -0.0003438695     2     6     1     4
 -0.0000931103     2     6     1    11
 0.1107717509     2     6     3     2
 0.0009926747     2     6     3     4
 0.0011108526     2     6     3    11
 -0.1296901884     2     6     4     1
 -0.0110066785     2     6     4     3
 0.0013674071     2     6     4     9
 0.0043376934     2     6     5     7
 -0.5638340863     2     6     6     2
 -0.0162925210     2     6     6     4
 -0.0038563791     2     6     6    11
 0.0033769847     2     6     7     5
 -0.0049934132     2     6     8    10
 0.0469774175     2     6     9     2
 0.0026757366     2     6     9     4
 0.0022294520     2     6     9    11
 -0.0023317057     2     6    10     8
 -0.0099467525     2     6    11     1
 -0.0015931460     2     6    11     3
 0.0019045508     2     6    11     9
 -0.0002050372     2     7     1     5
 0.0023387579     2     7     3     5
 0.1660562090     2     7     5     1
 0.0132405785     2     7     5     3
 -0.0043376934     2     7     5     6
 -0.0000948639     2     7     5     9
 -0.0009747470     2     7     6     5
 -0.4496283169     2     7     7     2
 -0.0094333081     2     7     7     4
 -0.0019739932     2     7     7    11
 0.0003679132     2     7     9     5
 -0.0002372684     2     8     1    10
 0.0026337660     2     8     3    10
 -0.0020682865     2     8     6    10
 -0.5357452606     2     8     8     2
 -0.0116285996     2     8     8     4
 -0.0038272031     2     8     8    11
 0.0002632475     2     8     9    10
 -0.1120682819     2     8    10     1
 -0.0077478970     2     8    10     3
 0.0023317057     2     8    10     6
 0.0011706605     2     8    10     9
 0.0025646906     2     9     1     2
 0.0000691571     2     9     1     4
 0.0000202989     2     9     1    11
 0.0333019761     2     9     3     2
 0.0006004531     2     9     3     4
 0.0000083444     2     9     3    11
 0.0414947538     2     9     4     1
 0.0025301830     2     9     4     3
 -0.0013674071     2     9     4     6
 0.0000948639     2     9     5     7
 0.0469774175     2     9     6     2
 0.0016216009     2     9     6     4
 0.0003462381     2     9     6    11
 0.0004976486     2     9     7     5
 -0.0009425536     2     9     8    10
 -0.2242666159     2     9     9     2
 -0.0006691373     2     9     9     4
 -0.0004321027     2     9     9    11
 -0.0011706605     2     9    10     8
 0.0373536245     2     9    11     1
 0.0011699158     2     9    11     3
 -0.0019045508     2     9    11     6
 0.0002372684     2    10     1     8
 -0.0026337660     2    10     3     8
 0.0020682865     2    10     6     8
 -0.1118142373     2    10     8     1
 -0.0114297344     2    10     8     3
 0.0049934132     2    10     8     6
 0.0009425536     2    10     8     9
 -0.0002632475     2    10     9     8
 -0.4009483839     2    10    10     2
 -0.0068792157     2    10    10     4
 -0.0018914394     2    10    10    11
 0.0013624514     2    11     1     1
 -0.0000262041     2    11     1     3
 0.0000931103     2    11     1     6
 -0.0000202989     2    11     1     9
 -0.0336452589     2    11     3     1
 0.0013681750     2    11     3     3
 -0.0011108526     2    11     3     6
 -0.0000083444     2    11     3     9
 -0.0570162111     2    11     4     2
 0.0000408974     2    11     4     4
 0.0026131083     2    11     5     5
 -0.0098556041     2    11     6     1
 -0.0029271356     2    11     6     3
 0.0038563791     2    11     6     6
 -0.0003462381     2    11     6     9
 0.0019739932     2    11     7     7
 0.0038272031     2    11     8     8
 0.0373350700     2    11     9     1
 0.0011591848     2    11     9     3
 -0.0022294520     2    11     9     6
 0.0004321027     2    11     9     9
 0.0018914394     2    11    10    10
 -0.2050942526     2    11    11     2
 0.0000242778     2    11    11     4
 -0.5960694621     3     1     1     3
 0.1105731086     3     1     1     6
 0.0333482856     3     1     1     9
 -0.0042158165     3     1     2     2
 -0.1503504221     3     1     2     4
 -0.0336452589     3     1     2    11
 -0.0001148138     3     1     4     2
 0.0052335785     3     1     4     4
 0.0007640949     3     1     4    11
 0.0117334351     3     1     5     5
 -0.0091848926     3     1     6     3
 0.0177474315     3     1     6     6
 -0.0023665823     3     1     6     9
 0.0086531994     3     1     7     7
 0.0134912982     3     1     8     8
 0.0026622242     3     1     9     3
 -0.0049083568     3     1     9     6
 0.0009288328     3     1     9     9
 0.0068856853     3     1    10    10
 -0.0000262041     3     1    11     2
 0.0010916067     3     1    11     4
 0.0005725425     3     1    11    11
 -0.1502359872     3     2     1     4
 -0.0336291780     3     2     1    11
 0.0042158165     3     2     2     1
 -0.5960930707     3     2     2     3
 0.1107717509     3     2     2     6
 0.0333019761     3     2     2     9
 0.0001148138     3     2     4     1
 -0.0037838810     3     2     4     3
 0.0120027752     3     2     4     6
 -0.0017069039     3     2     4     9
 -0.0108859640     3     2     5     7
 0.0110066785     3     2     6     4
 0.0015931460     3     2     6    11
 -0.0132405785     3     2     7     5
 0.0077478970     3     2     8    10
 -0.0025301830     3     2     9     4
 -0.0011699158     3     2     9    11
 0.0114297344     3     2    10     8
 0.0000262041     3     2    11     1
 -0.0013681750     3     2    11     3
 0.0029271356     3     2    11     6
 -0.0011591848     3     2    11     9
 0.5960694621     3     3     1     1
 0.0091848926     3     3     1     6
 -0.0026622242     3     3     1     9
 0.5960930707     3     3     2     2
 0.0037838810     3     3     2     4
 0.0013681750     3     3     2    11
 0.0037838810     3     3     4     2
 0.3151939910     3     3     4     4
 0.0241621534     3     3     4    11
 0.3527895509     3     3     5     5
 0.0091848926     3     3     6     1
 0.3837656556     3     3     6     6
 -0.0278443467     3     3     6     9
 0.3528078852     3     3     7     7
 0.3898375608     3     3     8     8
 -0.0026622242     3     3     9     1
 -0.0278443467     3     3     9     6
 0.2097895246     3     3     9     9
 0.3289091692     3     3    10    10
 0.0013681750     3     3    11     2
 0.0241621534     3     3    11     4
 0.1904198989     3     3    11    11
 0.1502359872     3     4     1     2
 -0.0001939521     3     4     1    11
 0.1503504221     3     4     2     1
 -0.0037838810     3     4     2     3
 0.0009926747     3     4     2     6
 0.0006004531     3     4     2     9
 -0.0052335785     3     4     4     1
 -0.3151939910     3     4     4     3
 0.0888481726     3     4     4     6
 0.0017155545     3     4     4     9
 -0.0551009013     3     4     5     7
 -0.0110066785     3     4     6     2
 -0.0093304578     3     4     6    11
 -0.0326680845     3     4     7     5
 0.0427458947     3     4     8    10
 0.0025301830     3     4     9     2
 -0.0236093582     3     4     9    11
 0.0287884182     3     4    10     8
 -0.0010916067     3     4    11     1
 -0.0241621534     3     4    11     3
 0.0063314059     3     4    11     6
 -0.0239556884     3     4    11     9
 0.0023387579     3     5     2     7
 -0.0224113970     3     5     4     7
 -0.0117334351     3     5     5     1
 -0.3527895509     3     5     5     3
 0.0555943405     3     5     5     6
 0.0197902313     3     5     5     9
 0.0132405785     3     5     7     2
 0.0326680845     3     5     7     4
 0.0114535446     3     5     7    11
 0.0005546457     3     5    11     7
 -0.1105731086     3     6     1     1
 -0.0091848926     3     6     1     3
 0.0023156242     3     6     1     9
 -0.1107717509     3     6     2     2
 -0.0009926747     3     6     2     4
 -0.0011108526     3     6     2    11
 -0.0120027752     3     6     4     2
 -0.0888481726     3     6     4     4
 -0.0162924528     3     6     4    11
 -0.0555943405     3     6     5     5
 -0.0177474315     3     6     6     1
 -0.3837656556     3     6     6     3
 0.0200004167     3     6     6     9
 -0.0410582895     3     6     7     7
 -0.0555705077     3     6     8     8
 0.0049083568     3     6     9     1
 0.0278443467     3     6     9     3
 -0.0071571541     3     6     9     9
 -0.0303069631     3     6    10    10
 -0.0029271356     3     6    11     2
 -0.0063314059     3     6    11     4
 -0.0001314172     3     6    11    11
 -0.0023387579     3     7     2     5
 0.0224113970     3     7     4     5
 0.0108859640     3     7     5     2
 0.0551009013     3     7     5     4
 0.0110067486     3     7     5    11
 -0.0086531994     3     7     7     1
 -0.3528078852     3     7     7     3
 0.0410582895     3     7     7     6
 0.0148779108     3     7     7     9
 -0.0005546457     3     7    11     5
 -0.0026337660     3     8     2    10
 0.0138520243     3     8     4    10
 -0.0134912982     3     8     8     1
 -0.3898375608     3     8     8     3
 0.0555705077     3     8     8     6
 0.0152848218     3     8     8     9
 0.0000000001     3     8     8    11
 -0.0114297344     3     8    10     2
 -0.0287884182     3     8    10     4
 -0.0080739406     3     8    10    11
 -0.0001448857     3     8    11    10
 -0.0333482856     3     9     1     1
 0.0026622242     3     9     1     3
 -0.0023156242     3     9     1     6
 -0.0333019761     3     9     2     2
 -0.0006004531     3     9     2     4
 -0.0000083444     3     9     2    11
 0.0017069039     3     9     4     2
 -0.0017155545     3     9     4     4
 0.0001105585     3     9     4    11
 -0.0197902313     3     9     5     5
 0.0023665823     3     9     6     1
 0.0278443467     3     9     6     3
 -0.0200004167     3     9     6     6
 -0.0000000001     3     9     6    11
 -0.0148779108     3     9     7     7
 -0.0152848218     3     9     8     8
 0.0000000001     3     9     8    10
 -0.0009288328     3     9     9     1
 -0.2097895246     3     9     9     3
 0.0071571541     3     9     9     6
 -0.0000000003     3     9     9    11
 -0.0118816312     3     9    10    10
 0.0011591848     3     9    11     2
 0.0239556884     3     9    11     4
 -0.0015943068     3     9    11    11
 0.0026337660     3    10     2     8
 -0.0138520243     3    10     4     8
 -0.0077478970     3    10     8     2
 -0.0427458947     3    10     8     4
 -0.0000000001     3    10     8     9
 -0.0067034272     3    10     8    11
 -0.0068856853     3    10    10     1
 -0.3289091692     3    10    10     3
 0.0303069631     3    10    10     6
 0.0118816312     3    10    10     9
 0.0000000004     3    10    10    11
 0.0001448857     3    10    11     8
 0.0336291780     3    11     1     2
 0.0001939521     3    11     1     4
 0.0336452589     3    11     2     1
 -0.0013681750     3    11     2     3
 0.0011108526     3    11     2     6
 0.0000083444     3    11     2     9
 -0.0007640949     3    11     4     1
 -0.0241621534     3    11     4     3
 0.0162924528     3    11     4     6
 -0.0001105585     3    11     4     9
 -0.0110067486     3    11     5     7
 -0.0015931460     3    11     6     2
 0.0093304578     3    11     6     4
 0.0000000001     3    11     6     9
 -0.0114535446     3    11     7     5
 -0.0000000001     3    11     8     8
 0.0067034272     3    11     8    10
 0.0011699158     3    11     9     2
 0.0236093582     3    11     9     4
 0.0000000003     3    11     9     9
 0.0080739406     3    11    10     8
 -0.0000000004     3    11    10    10
 -0.0005725425     3    11    11     1
 -0.1904198989     3    11    11     3
 0.0001314172     3    11    11     6
 0.0015943068     3    11    11     9
 -0.0051578301     4     1     1     2
 -0.4825145958     4     1     1     4
 -0.0570550384     4     1     1    11
 -0.1502359872     4     1     2     3
 -0.1296901884     4     1     2     6
 0.0414947538     4     1     2     9
 0.0001148138     4     1     3     2
 -0.0052335785     4     1     3     4
 -0.0007640949     4     1     3    11
 -0.0080508668     4     1     5     7
 -0.0003438695     4     1     6     2
 0.0026623174     4     1     6     4
 0.0005652841     4     1     6    11
 -0.0059683944     4     1     7     5
 0.0056026982     4     1     8    10
 0.0000691571     4     1     9     2
 0.0001208412     4     1     9     4
 0.0004827153     4     1     9    11
 0.0046488701     4     1    10     8
 0.0001939521     4     1    11     3
 0.0001469913     4     1    11     6
 0.0004234473     4     1    11     9
 0.0051578301     4     2     1     1
 -0.1503504221     4     2     1     3
 -0.1293463655     4     2     1     6
 0.0414366007     4     2     1     9
 -0.4824122189     4     2     2     4
 -0.0570162111     4     2     2    11
 -0.0001148138     4     2     3     1
 0.0037838810     4     2     3     3
 -0.0120027752     4     2     3     6
 0.0017069039     4     2     3     9
 0.0097896180     4     2     5     5
 0.0003438695     4     2     6     1
 -0.0009926747     4     2     6     3
 0.0162925210     4     2     6     6
 -0.0026757366     4     2     6     9
 0.0094333081     4     2     7     7
 0.0116285996     4     2     8     8
 -0.0000691571     4     2     9     1
 -0.0006004531     4     2     9     3
 -0.0016216009     4     2     9     6
 0.0006691373     4     2     9     9
 0.0068792157     4     2    10    10
 -0.0000408974     4     2    11     4
 -0.0000242778     4     2    11    11
 0.1503504221     4     3     1     2
 -0.0052335785     4     3     1     4
 -0.0010916067     4     3     1    11
 0.1502359872     4     3     2     1
 -0.0110066785     4     3     2     6
 0.0025301830     4     3     2     9
 -0.0037838810     4     3     3     2
 -0.3151939910     4     3     3     4
 -0.0241621534     4     3     3    11
 -0.0326680845     4     3     5     7
 0.0009926747     4     3     6     2
 0.0888481726     4     3     6     4
 0.0063314059     4     3     6    11
 -0.0551009013     4     3     7     5
 0.0287884182     4     3     8    10
 0.0006004531     4     3     9     2
 0.0017155545     4     3     9     4
 -0.0239556884     4     3     9    11
 0.0427458947     4     3    10     8
 -0.0001939521     4     3    11     1
 -0.0093304578     4     3    11     6
 -0.0236093582     4     3    11     9
 0.4825145958     4     4     1     1
 0.0052335785     4     4     1     3
 -0.0026623174     4     4     1     6
 -0.0001208412     4     4     1     9
 0.4824122189     4     4     2     2
 0.0000408974     4     4     2    11
 0.0052335785     4     4     3     1
 0.3151939910     4     4     3     3
 -0.0888481726     4     4     3     6
 -0.0017155545     4     4     3     9
 0.3251965055     4     4     5     5
 -0.0026623174     4     4     6     1
 -0.0888481726     4     4     6     3
 0.2984355467     4     4     6     6
 -0.0104792765     4     4     6     9
 0.2962328826     4     4     7     7
 0.3487200614     4     4     8     8
 -0.0001208412     4     4     9     1
 -0.0017155545     4     4     9     3
 -0.0104792765     4     4     9     6
 0.2020192320     4     4     9     9
 0.2950790299     4     4    10    10
 0.0000408974     4     4    11     2
 0.1904223464     4     4    11    11
 -0.0020738687     4     5     1     7
 0.0224113970     4     5     3     7
 -0.0097896180     4     5     5     2
 -0.3251965055     4     5     5     4
 -0.0270458830     4     5     5    11
 -0.0006097404     4     5     6     7
 0.0059683944     4     5     7     1
 0.0551009013     4     5     7     3
 0.0617276070     4     5     7     6
 -0.0181150690     4     5     7     9
 0.0045021660     4     5     9     7
 0.1293463655     4     6     1     2
 0.0026623174     4     6     1     4
 0.0004204125     4     6     1    11
 0.1296901884     4     6     2     1
 0.0110066785     4     6     2     3
 -0.0013674071     4     6     2     9
 0.0120027752     4     6     3     2
 0.0888481726     4     6     3     4
 0.0162924528     4     6     3    11
 -0.0622698640     4     6     5     7
 -0.0162925210     4     6     6     2
 -0.2984355467     4     6     6     4
 -0.0325765890     4     6     6    11
 -0.0617276070     4     6     7     5
 0.0541055479     4     6     8    10
 0.0016216009     4     6     9     2
 0.0104792765     4     6     9     4
 -0.0273864291     4     6     9    11
 0.0463929408     4     6    10     8
 -0.0001469913     4     6    11     1
 0.0093304578     4     6    11     3
 -0.0305433100     4     6    11     9
 0.0020738687     4     7     1     5
 -0.0224113970     4     7     3     5
 0.0080508668     4     7     5     1
 0.0326680845     4     7     5     3
 0.0622698640     4     7     5     6
 -0.0230974742     4     7     5     9
 0.0006097404     4     7     6     5
 -0.0094333081     4     7     7     2
 -0.2962328826     4     7     7     4
 -0.0266748442     4     7     7    11
 -0.0045021660     4     7     9     5
 0.0016096576     4     8     1    10
 -0.0138520243     4     8     3    10
 0.0062897135     4     8     6    10
 -0.0116285996     4     8     8     2
 -0.3487200614     4     8     8     4
 -0.0295185062     4     8     8    11
 -0.0003114925     4     8     9    10
 -0.0046488701     4     8    10     1
 -0.0427458947     4     8    10     3
 -0.0463929408     4     8    10     6
 0.0132457443     4     8    10     9
 -0.0000000001     4     8    11    10
 -0.0414366007     4     9     1     2
 0.0001208412     4     9     1     4
 0.0000462714     4     9     1    11
 -0.0414947538     4     9     2     1
 -0.0025301830     4     9     2     3
 0.0013674071     4     9     2     6
 -0.0017069039     4     9     3     2
 0.0017155545     4     9     3     4
 -0.0001105585     4     9     3    11
 0.0230974742     4     9     5     7
 0.0026757366     4     9     6     2
 0.0104792765     4     9     6     4
 0.0031596436     4     9     6    11
 0.0181150690     4     9     7     5
 -0.0119266492     4     9     8    10
 -0.0006691373     4     9     9     2
 -0.2020192320     4     9     9     4
 -0.0035358605     4     9     9    11
 -0.0132457443     4     9    10     8
 0.0000000002     4     9    10    10
 -0.0004234473     4     9    11     1
 0.0236093582     4     9    11     3
 0.0305433100     4     9    11     6
 0.0000000003     4     9    11    11
 -0.0016096576     4    10     1     8
 0.0138520243     4    10     3     8
 -0.0062897135     4    10     6     8