&FCI NORB= 16,NELEC= 10,MS2=0,
 ORBSYM=1,1,1,1,1,1,1,1,1,1,1,1,1,1,1,1
 ISYM=1,
&END
 0.9846956890     1     1     2     2
 0.0672875924     1     1     2     4
 -0.1080055973     1     1     2     6
 -0.0546937303     1     1     2     8
 -0.1116226059     1     1     2    11
 0.0544401111     1     1     2    13
 -0.1456762134     1     1     2    16
 0.8707819626     1     1     3     3
 0.1193894107     1     1     3     7
 -0.0467505921     1     1     3     9
 0.2271795814     1     1     3    12
 0.0672875924     1     1     4     2
 0.9509678959     1     1     4     4
 0.0605673945     1     1     4     6
 -0.1253359093     1     1     4     8
 0.1630904789     1     1     4    11
 -0.0589598560     1     1     4    13
 -0.0845108088     1     1     4    16
 0.9967787358     1     1     5     5
 0.2272030847     1     1     5    10
 -0.0564692100     1     1     5    15
 -0.1080055973     1     1     6     2
 0.0605673945     1     1     6     4
 0.2796415897     1     1     6     6
 0.0147191552     1     1     6     8
 0.1065938007     1     1     6    11
 -0.0477594914     1     1     6    13
 0.0733662621     1     1     6    16
 0.1193894107     1     1     7     3
 0.2410004045     1     1     7     7
 -0.0304732242     1     1     7     9
 0.1283181529     1     1     7    12
 -0.0546937303     1     1     8     2
 -0.1253359093     1     1     8     4
 0.0147191552     1     1     8     6
 0.3088760311     1     1     8     8
 -0.0208192858     1     1     8    11
 0.0204331529     1     1     8    13
 0.0601043064     1     1     8    16
 -0.0467505921     1     1     9     3
 -0.0304732242     1     1     9     7
 0.3141130640     1     1     9     9
 -0.0678980220     1     1     9    12
 0.2272030847     1     1    10     5
 0.3956368068     1     1    10    10
 -0.0396291785     1     1    10    15
 -0.1116226059     1     1    11     2
 0.1630904789     1     1    11     4
 0.1065938007     1     1    11     6
 -0.0208192858     1     1    11     8
 0.4229707491     1     1    11    11
 -0.0395938892     1     1    11    13
 0.0094909703     1     1    11    16
 0.2271795814     1     1    12     3
 0.1283181529     1     1    12     7
 -0.0678980220     1     1    12     9
 0.4507757491     1     1    12    12
 0.0544401111     1     1    13     2
 -0.0589598560     1     1    13     4
 -0.0477594914     1     1    13     6
 0.0204331529     1     1    13     8
 -0.0395938892     1     1    13    11
 0.3358728788     1     1    13    13
 -0.0093425036     1     1    13    16
 0.3247002486     1     1    14    14
 -0.0564692100     1     1    15     5
 -0.0396291785     1     1    15    10
 0.3317574439     1     1    15    15
 -0.1456762134     1     1    16     2
 -0.0845108088     1     1    16     4
 0.0733662621     1     1    16     6
 0.0601043064     1     1    16     8
 0.0094909703     1     1    16    11
 -0.0093425036     1     1    16    13
 0.4083705931     1     1    16    16
 -0.9846956890     1     2     2     1
 -0.0070449077     1     2     2     4
 -0.0011000374     1     2     2     6
 0.0020059651     1     2     2     8
 -0.0034376209     1     2     2    11
 0.0014644080     1     2     2    13
 0.0011120438     1     2     2    16
 0.0311680962     1     2     3     3
 0.0085488285     1     2     3     7
 -0.0052517448     1     2     3     9
 0.0200261455     1     2     3    12
 -0.0672875924     1     2     4     1
 0.0360850042     1     2     4     4
 0.0054712262     1     2     4     6
 -0.0078611476     1     2     4     8
 0.0144919418     1     2     4    11
 -0.0061433126     1     2     4    13
 -0.0046564696     1     2     4    16
 0.0409153525     1     2     5     5
 0.0170444983     1     2     5    10
 -0.0053601623     1     2     5    15
 0.1080055973     1     2     6     1
 0.0052255027     1     2     6     4
 0.0009832072     1     2     6     6
 -0.0011764709     1     2     6     8
 0.0027116085     1     2     6    11
 -0.0011002084     1     2     6    13
 -0.0005194795     1     2     6    16
 0.0063465531     1     2     7     3
 0.0021321041     1     2     7     7
 -0.0012157613     1     2     7     9
 0.0052050362     1     2     7    12
 0.0546937303     1     2     8     1
 -0.0057147694     1     2     8     4
 -0.0007879101     1     2     8     6
 0.0020662651     1     2     8     8
 -0.0030214710     1     2     8    11
 0.0009509509     1     2     8    13
 0.0014025644     1     2     8    16
 -0.0035405869     1     2     9     3
 -0.0010649828     1     2     9     7
 0.0008708185     1     2     9     9
 -0.0024843005     1     2     9    12
 0.0130540781     1     2    10     5
 0.0072454988     1     2    10    10
 -0.0019289934     1     2    10    15
 0.1116226059     1     2    11     1
 0.0120039856     1     2    11     4
 0.0022678076     1     2    11     6
 -0.0035039863     1     2    11     8
 0.0061624652     1     2    11    11
 -0.0024040235     1     2    11    13
 -0.0019159540     1     2    11    16
 0.0137652681     1     2    12     3
 0.0048043665     1     2    12     7
 -0.0026039986     1     2    12     9
 0.0110380550     1     2    12    12
 -0.0544401111     1     2    13     1
 -0.0046843869     1     2    13     4
 -0.0008230645     1     2    13     6
 0.0010364336     1     2    13     8
 -0.0021696789     1     2    13    11
 0.0007036370     1     2    13    13
 0.0005800756     1     2    13    16
 -0.0002238758     1     2    14    14
 -0.0035543264     1     2    15     5
 -0.0016131061     1     2    15    10
 0.0003857036     1     2    15    15
 0.1456762134     1     2    16     1
 -0.0021922445     1     2    16     4
 -0.0001001586     1     2    16     6
 0.0010012067     1     2    16     8
 -0.0009722851     1     2    16    11
 0.0002446401     1     2    16    13
 0.0010816263     1     2    16    16
 0.0015827093     1     3     2     7
 -0.0013967397     1     3     2     9
 0.0049638154     1     3     2    12
 -0.8707819626     1     3     3     1
 -0.0311680962     1     3     3     2
 -0.0105847775     1     3     3     4
 0.0035753454     1     3     3     6
 0.0036337808     1     3     3     8
 0.0002603242     1     3     3    11
 -0.0032933023     1     3     3    13
 0.0090827943     1     3     3    16
 -0.0007050949     1     3     4     7
 0.0028348631     1     3     4     9
 -0.0021512731     1     3     4    12
 -0.0026284675     1     3     5    14
 0.0014987521     1     3     6     7
 0.0003204043     1     3     6     9
 0.0012903675     1     3     6    12
 -0.1193894107     1     3     7     1
 -0.0063465531     1     3     7     2
 -0.0021683434     1     3     7     4
 0.0026916820     1     3     7     6
 0.0014465094     1     3     7     8
 0.0016587827     1     3     7    11
 -0.0004131194     1     3     7    13
 0.0023717230     1     3     7    16
 0.0007592629     1     3     8     7
 0.0007747838     1     3     8     9
 0.0021341991     1     3     8    12
 0.0467505921     1     3     9     1
 0.0035405869     1     3     9     2
 0.0010901605     1     3     9     4
 -0.0008772833     1     3     9     6
 0.0009823145     1     3     9     8
 -0.0025835627     1     3     9    11
 0.0013877884     1     3     9    13
 -0.0007525974     1     3     9    16
 0.0007856870     1     3    10    14
 0.0010730084     1     3    11     7
 -0.0009741589     1     3    11     9
 0.0027750699     1     3    11    12
 -0.2271795814     1     3    12     1
 -0.0137652681     1     3    12     2
 -0.0046293476     1     3    12     4
 0.0042905689     1     3    12     6
 0.0035220431     1     3    12     8
 0.0046741182     1     3    12    11
 -0.0020438718     1     3    12    13
 0.0066585361     1     3    12    16
 0.0007368347     1     3    13     7
 0.0002433432     1     3    13     9
 0.0008218481     1     3    13    12
 0.0001655239     1     3    14     5
 0.0020994008     1     3    14    10
 -0.0021940895     1     3    14    15
 -0.0018199667     1     3    15    14
 0.0000312977     1     3    16     7
 0.0003308967     1     3    16     9
 0.0012717449     1     3    16    12
 -0.0672875924     1     4     2     1
 0.0070449077     1     4     2     2
 -0.0002527432     1     4     2     6
 -0.0015722489     1     4     2     8
 0.0013782314     1     4     2    11
 -0.0010096646     1     4     2    13
 -0.0022353279     1     4     2    16
 0.0105847775     1     4     3     3
 0.0016253300     1     4     3     7
 0.0016987393     1     4     3     9
 0.0028099466     1     4     3    12
 -0.9509678959     1     4     4     1
 -0.0360850042     1     4     4     2
 0.0069219534     1     4     4     6
 0.0023739976     1     4     4     8
 0.0094929651     1     4     4    11
 -0.0014732188     1     4     4    13
 0.0097280675     1     4     4    16
 0.0136587031     1     4     5     5
 0.0054691350     1     4     5    10
 0.0011573763     1     4     5    15
 -0.0605673945     1     4     6     1
 -0.0052255027     1     4     6     2
 0.0026234456     1     4     6     6
 -0.0006922818     1     4     6     8
 0.0031509291     1     4     6    11
 -0.0012242406     1     4     6    13
 0.0016339064     1     4     6    16
 0.0021683434     1     4     7     3
 0.0014594413     1     4     7     7
 -0.0007899561     1     4     7     9
 0.0017517847     1     4     7    12
 0.1253359093     1     4     8     1
 0.0057147694     1     4     8     2
 -0.0025668507     1     4     8     6
 -0.0018439412     1     4     8     8
 -0.0009516971     1     4     8    11
 0.0018268745     1     4     8    13
 -0.0027002059     1     4     8    16
 -0.0010901605     1     4     9     3
 -0.0015077689     1     4     9     7
 -0.0001103424     1     4     9     9
 -0.0035187701     1     4     9    12
 0.0044869379     1     4    10     5
 0.0022585810     1     4    10    10
 -0.0014883088     1     4    10    15
 -0.1630904789     1     4    11     1
 -0.0120039856     1     4    11     2
 0.0045052529     1     4    11     6
 0.0020902803     1     4    11     8
 0.0062339094     1     4    11    11
 -0.0025524942     1     4    11    13
 0.0049588661     1     4    11    16
 0.0046293476     1     4    12     3
 0.0019124900     1     4    12     7
 -0.0019556600     1     4    12     9
 0.0048012806     1     4    12    12
 0.0589598560     1     4    13     1
 0.0046843869     1     4    13     2
 -0.0022233417     1     4    13     6
 0.0011586242     1     4    13     8
 -0.0036706764     1     4    13    11
 0.0029737382     1     4    13    13
 -0.0011014618     1     4    13    16
 0.0018777505     1     4    14    14
 -0.0013092352     1     4    15     5
 -0.0027725532     1     4    15    10
 0.0018395460     1     4    15    15
 0.0845108088     1     4    16     1
 0.0021922445     1     4    16     2
 -0.0007571597     1     4    16     6
 -0.0008657697     1     4    16     8
 -0.0002442953     1     4    16    11
 0.0007440768     1     4    16    13
 -0.0008977555     1     4    16    16
 0.0027306219     1     5     2    10
 -0.0014735226     1     5     2    15
 -0.0029318433     1     5     3    14
 0.0006512719     1     5     4    10
 0.0026606689     1     5     4    15
 -0.9967787358     1     5     5     1
 -0.0409153525     1     5     5     2
 -0.0136587031     1     5     5     4
 0.0064582691     1     5     5     6
 0.0072175285     1     5     5     8
 0.0076821004     1     5     5    11
 -0.0035227224     1     5     5    13
 0.0097407574     1     5     5    16
 0.0020966049     1     5     6    10
 -0.0001381212     1     5     6    15
 0.0005111964     1     5     7    14
 -0.0001875260     1     5     8    10
 0.0002215811     1     5     8    15
 0.0000673918     1     5     9    14
 -0.2272030847     1     5    10     1
 -0.0130540781     1     5    10     2
 -0.0044869379     1     5    10     4
 0.0048750044     1     5    10     6
 0.0028296987     1     5    10     8
 0.0025993839     1     5    10    11
 -0.0015519387     1     5    10    13
 0.0077474083     1     5    10    16
 -0.0008389217     1     5    11    10
 -0.0006912130     1     5    11    15
 0.0003098266     1     5    12    14
 -0.0000011013     1     5    13    10
 -0.0001488373     1     5    13    15
 -0.0001655239     1     5    14     3
 0.0012831948     1     5    14     7
 -0.0003552455     1     5    14     9
 0.0020805985     1     5    14    12
 0.0564692100     1     5    15     1
 0.0035543264     1     5    15     2
 0.0013092352     1     5    15     4
 -0.0014826873     1     5    15     6
 -0.0000108398     1     5    15     8
 -0.0029980901     1     5    15    11
 0.0008183242     1     5    15    13
 -0.0008749815     1     5    15    16
 0.0037873291     1     5    16    10
 0.0000191766     1     5    16    15
 0.1080055973     1     6     2     1
 0.0011000374     1     6     2     2
 0.0002527432     1     6     2     4
 -0.0003942779     1     6     2     8
 0.0004641384     1     6     2    11
 -0.0002857515     1     6     2    13
 -0.0003851493     1     6     2    16
 -0.0035753454     1     6     3     3
 -0.0011871239     1     6     3     7
 0.0012134696     1     6     3     9
 -0.0030215880     1     6     3    12
 -0.0605673945     1     6     4     1
 -0.0054712262     1     6     4     2
 -0.0069219534     1     6     4     4
 0.0018817870     1     6     4     8
 -0.0013755937     1     6     4    11
 0.0010126598     1     6     4    13
 0.0024064688     1     6     4    16
 -0.0064582691     1     6     5     5
 -0.0027619086     1     6     5    10
 0.0013435372     1     6     5    15
 -0.2796415897     1     6     6     1
 -0.0009832072     1     6     6     2
 -0.0026234456     1     6     6     4
 0.0004740435     1     6     6     8
 -0.0006383540     1     6     6    11
 0.0002584229     1     6     6    13
 0.0005760584     1     6     6    16
 -0.0026916820     1     6     7     3
 -0.0006624049     1     6     7     7
 0.0003745164     1     6     7     9
 -0.0018206624     1     6     7    12
 -0.0147191552     1     6     8     1
 0.0007879101     1     6     8     2
 0.0025668507     1     6     8     4
 -0.0009808551     1     6     8     8
 0.0010539757     1     6     8    11
 -0.0001352069     1     6     8    13
 -0.0008339198     1     6     8    16
 0.0008772833     1     6     9     3
 0.0000535712     1     6     9     7
 -0.0002109284     1     6     9     9
 0.0001137966     1     6     9    12
 -0.0048750044     1     6    10     5
 -0.0022800702     1     6    10    10
 0.0004933493     1     6    10    15
 -0.1065938007     1     6    11     1
 -0.0022678076     1     6    11     2
 -0.0045052529     1     6    11     4
 0.0014801593     1     6    11     8
 -0.0009721808     1     6    11    11
 0.0003714190     1     6    11    13
 0.0014508516     1     6    11    16
 -0.0042905689     1     6    12     3
 -0.0012353539     1     6    12     7
 0.0005317292     1     6    12     9
 -0.0027737666     1     6    12    12
 0.0477594914     1     6    13     1
 0.0008230645     1     6    13     2
 0.0022233417     1     6    13     4
 -0.0003017944     1     6    13     8
 0.0003583853     1     6    13    11
 0.0001530121     1     6    13    13
 -0.0004472316     1     6    13    16
 0.0003624676     1     6    14    14
 0.0014826873     1     6    15     5
 0.0002920049     1     6    15    10
 0.0001184325     1     6    15    15
 -0.0733662621     1     6    16     1
 0.0001001586     1     6    16     2
 0.0007571597     1     6    16     4
 -0.0003816076     1     6    16     8
 0.0003299495     1     6    16    11
 -0.0000044897     1     6    16    13
 -0.0003097507     1     6    16    16
 -0.0015827093     1     7     2     3
 -0.0001480857     1     7     2     9
 0.0003861317     1     7     2    12
 -0.1193894107     1     7     3     1
 -0.0085488285     1     7     3     2
 -0.0016253300     1     7     3     4
 0.0011871239     1     7     3     6
 0.0006969751     1     7     3     8
 0.0005631101     1     7     3    11
 -0.0011472246     1     7     3    13
 0.0023432530     1     7     3    16
 0.0007050949     1     7     4     3
 0.0007262453     1     7     4     9
 -0.0001662694     1     7     4    12
 -0.0007752505     1     7     5    14
 -0.0014987521     1     7     6     3
 0.0003205359     1     7     6     9
 -0.0005828699     1     7     6    12
 -0.2410004045     1     7     7     1
 -0.0021321041     1     7     7     2
 -0.0014594413     1     7     7     4
 0.0006624049     1     7     7     6
 0.0006015386     1     7     7     8
 0.0001865338     1     7     7    11
 -0.0000076726     1     7     7    13
 0.0008125043     1     7     7    16
 -0.0007592629     1     7     8     3
 0.0003385514     1     7     8     9
 0.0001112432     1     7     8    12
 0.0304732242     1     7     9     1
 0.0010649828     1     7     9     2
 0.0015077689     1     7     9     4
 -0.0000535712     1     7     9     6
 0.0000079369     1     7     9     8
 -0.0002269068     1     7     9    11
 0.0001978027     1     7     9    13
 -0.0003558779     1     7     9    16
 0.0002213861     1     7    10    14
 -0.0010730084     1     7    11     3
 -0.0001085654     1     7    11     9
 0.0000955082     1     7    11    12
 -0.1283181529     1     7    12     1
 -0.0048043665     1     7    12     2
 -0.0019124900     1     7    12     4
 0.0012353539     1     7    12     6
 0.0011440493     1     7    12     8
 0.0012474116     1     7    12    11
 -0.0005593949     1     7    12    13
 0.0020744257     1     7    12    16
 -0.0007368347     1     7    13     3
 0.0001817401     1     7    13     9
 -0.0002361587     1     7    13    12
 -0.0012831948     1     7    14     5
 0.0000042759     1     7    14    10
 -0.0004495532     1     7    14    15
 -0.0005100832     1     7    15    14
 -0.0000312977     1     7    16     3
 0.0000999649     1     7    16     9
 0.0003294193     1     7    16    12
 0.0546937303     1     8     2     1
 -0.0020059651     1     8     2     2
 0.0015722489     1     8     2     4
 0.0003942779     1     8     2     6
 0.0005131919     1     8     2    11
 -0.0001058500     1     8     2    13
 0.0004434810     1     8     2    16
 -0.0036337808     1     8     3     3
 -0.0006969751     1     8     3     7
 -0.0001956067     1     8     3     9
 -0.0014518456     1     8     3    12
 0.1253359093     1     8     4     1
 0.0078611476     1     8     4     2
 -0.0023739976     1     8     4     4
 -0.0018817870     1     8     4     6
 -0.0030741438     1     8     4    11
 0.0006745156     1     8     4    13
 -0.0018281310     1     8     4    16
 -0.0072175285     1     8     5     5
 -0.0030571619     1     8     5    10
 0.0002423293     1     8     5    15
 -0.0147191552     1     8     6     1
 0.0011764709     1     8     6     2
 0.0006922818     1     8     6     4
 -0.0004740435     1     8     6     6
 -0.0004275863     1     8     6    11
 0.0001677340     1     8     6    13
 -0.0004511725     1     8     6    16
 -0.0014465094     1     8     7     3
 -0.0006015386     1     8     7     7
 0.0003307914     1     8     7     9
 -0.0010342770     1     8     7    12
 -0.3088760311     1     8     8     1
 -0.0020662651     1     8     8     2
 0.0018439412     1     8     8     4
 0.0009808551     1     8     8     6
 0.0011728120     1     8     8    11
 -0.0007881516     1     8     8    13
 0.0004788957     1     8     8    16
 -0.0009823145     1     8     9     3
 -0.0000079369     1     8     9     7
 0.0002204156     1     8     9     9
 0.0000035396     1     8     9    12
 -0.0028296987     1     8    10     5
 -0.0013305685     1     8    10    10
 0.0005746183     1     8    10    15
 0.0208192858     1     8    11     1
 0.0035039863     1     8    11     2
 -0.0020902803     1     8    11     4
 -0.0014801593     1     8    11     6
 -0.0024829753     1     8    11    11
 0.0010078840     1     8    11    13
 -0.0009856450     1     8    11    16
 -0.0035220431     1     8    12     3
 -0.0011440493     1     8    12     7
 0.0008351619     1     8    12     9
 -0.0027198970     1     8    12    12
 -0.0204331529     1     8    13     1
 -0.0010364336     1     8    13     2
 -0.0011586242     1     8    13     4
 0.0003017944     1     8    13     6
 0.0003358370     1     8    13    11
 -0.0004616849     1     8    13    13
 0.0003772900     1     8    13    16
 -0.0004081464     1     8    14    14
 0.0000108398     1     8    15     5
 0.0004949725     1     8    15    10
 -0.0003655722     1     8    15    15
 -0.0601043064     1     8    16     1
 -0.0010012067     1     8    16     2
 0.0008657697     1     8    16     4
 0.0003816076     1     8    16     6
 0.0005330344     1     8    16    11
 -0.0003551428     1     8    16    13
 0.0001587957     1     8    16    16
 0.0013967397     1     9     2     3
 0.0001480857     1     9     2     7
 0.0001252849     1     9     2    12
 0.0467505921     1     9     3     1
 0.0052517448     1     9     3     2
 -0.0016987393     1     9     3     4
 -0.0012134696     1     9     3     6
 0.0001956067     1     9     3     8
 -0.0016339412     1     9     3    11
 0.0011452245     1     9     3    13
 -0.0011112857     1     9     3    16
 -0.0028348631     1     9     4     3
 -0.0007262453     1     9     4     7
 -0.0015731539     1     9     4    12
 0.0004128342     1     9     5    14
 -0.0003204043     1     9     6     3
 -0.0003205359     1     9     6     7
 -0.0004176931     1     9     6    12
 0.0304732242     1     9     7     1
 0.0012157613     1     9     7     2
 0.0007899561     1     9     7     4
 -0.0003745164     1     9     7     6
 -0.0003307914     1     9     7     8
 -0.0001190339     1     9     7    11
 0.0000171794     1     9     7    13
 -0.0004565357     1     9     7    16
 -0.0007747838     1     9     8     3
 -0.0003385514     1     9     8     7
 -0.0008303472     1     9     8    12
 -0.3141130640     1     9     9     1
 -0.0008708185     1     9     9     2
 0.0001103424     1     9     9     4
 0.0002109284     1     9     9     6
 -0.0002204156     1     9     9     8
 0.0005794029     1     9     9    11
 -0.0002784667     1     9     9    13
 0.0001053209     1     9     9    16
 -0.0001115157     1     9    10    14
 0.0009741589     1     9    11     3
 0.0001085654     1     9    11     7
 0.0001883303     1     9    11    12
 0.0678980220     1     9    12     1
 0.0026039986     1     9    12     2
 0.0019556600     1     9    12     4
 -0.0005317292     1     9    12     6
 -0.0008351619     1     9    12     8
 -0.0002997877     1     9    12    11
 0.0001611499     1     9    12    13
 -0.0012478997     1     9    12    16
 -0.0002433432     1     9    13     3
 -0.0001817401     1     9    13     7
 -0.0002758628     1     9    13    12
 0.0003552455     1     9    14     5
 -0.0001534061     1     9    14    10
 0.0002857523     1     9    14    15
 0.0002759993     1     9    15    14
 -0.0003308967     1     9    16     3
 -0.0000999649     1     9    16     7
 -0.0004137145     1     9    16    12
 -0.0027306219     1    10     2     5
 -0.0003105369     1    10     2    15
 -0.0013250178     1    10     3    14
 -0.0006512719     1    10     4     5
 0.0012920592     1    10     4    15
 -0.2272030847     1    10     5     1
 -0.0170444983     1    10     5     2
 -0.0054691350     1    10     5     4
 0.0027619086     1    10     5     6
 0.0030571619     1    10     5     8
 0.0033977348     1    10     5    11
 -0.0015418296     1    10     5    13
 0.0040059310     1    10     5    16
 -0.0020966049     1    10     6     5
 0.0001998952     1    10     6    15
 0.0002175580     1    10     7    14
 0.0001875260     1    10     8     5
 0.0000788148     1    10     8    15
 0.0000410088     1    10     9    14
 -0.3956368068     1    10    10     1
 -0.0072454988     1    10    10     2
 -0.0022585810     1    10    10     4
 0.0022800702     1    10    10     6
 0.0013305685     1    10    10     8
 0.0013261419     1    10    10    11
 -0.0007660874     1    10    10    13
 0.0036291347     1    10    10    16
 0.0008389217     1    10    11     5
 -0.0003949592     1    10    11    15
 0.0001290013     1    10    12    14
 0.0000011013     1    10    13     5
 -0.0000705546     1    10    13    15
 -0.0020994008     1    10    14     3
 -0.0000042759     1    10    14     7
 0.0001534061     1    10    14     9
 -0.0003619688     1    10    14    12
 0.0396291785     1    10    15     1
 0.0016131061     1    10    15     2
 0.0027725532     1    10    15     4
 -0.0002920049     1    10    15     6
 -0.0004949725     1    10    15     8
 -0.0003991280     1    10    15    11
 0.0000025092     1    10    15    13
 -0.0006370997     1    10    15    16
 -0.0037873291     1    10    16     5
 0.0004709531     1    10    16    15
 0.1116226059     1    11     2     1
 0.0034376209     1    11     2     2
 -0.0013782314     1    11     2     4
 -0.0004641384     1    11     2     6
 -0.0005131919     1    11     2     8
 -0.0002294813     1    11     2    13
 -0.0009595519     1    11     2    16
 -0.0002603242     1    11     3     3
 -0.0005631101     1    11     3     7
 0.0016339412     1    11     3     9
 -0.0018921732     1    11     3    12
 -0.1630904789     1    11     4     1
 -0.0144919418     1    11     4     2
 -0.0094929651     1    11     4     4
 0.0013755937     1    11     4     6
 0.0030741438     1    11     4     8
 0.0011202794     1    11     4    13
 0.0052680015     1    11     4    16
 -0.0076821004     1    11     5     5
 -0.0033977348     1    11     5    10
 0.0022879631     1    11     5    15
 -0.1065938007     1    11     6     1
 -0.0027116085     1    11     6     2
 -0.0031509291     1    11     6     4
 0.0006383540     1    11     6     6
 0.0004275863     1    11     6     8
 0.0000121714     1    11     6    13
 0.0011236459     1    11     6    16
 -0.0016587827     1    11     7     3
 -0.0001865338     1    11     7     7
 0.0001190339     1    11     7     9
 -0.0011540490     1    11     7    12
 0.0208192858     1    11     8     1
 0.0030214710     1    11     8     2
 0.0009516971     1    11     8     4
 -0.0010539757     1    11     8     6
 -0.0011728120     1    11     8     8
 0.0006701272     1    11     8    13
 -0.0015210064     1    11     8    16
 0.0025835627     1    11     9     3
 0.0002269068     1    11     9     7
 -0.0005794029     1    11     9     9
 0.0004878679     1    11     9    12
 -0.0025993839     1    11    10     5
 -0.0013261419     1    11    10    10
 0.0000069079     1    11    10    15
 -0.4229707491     1    11    11     1
 -0.0061624652     1    11    11     2
 -0.0062339094     1    11    11     4
 0.0009721808     1    11    11     6
 0.0024829753     1    11    11     8
 -0.0000410580     1    11    11    13
 0.0030903460     1    11    11    16
 -0.0046741182     1    11    12     3
 -0.0012474116     1    11    12     7
 0.0002997877     1    11    12     9
 -0.0026885143     1    11    12    12
 0.0395938892     1    11    13     1
 0.0021696789     1    11    13     2
 0.0036706764     1    11    13     4
 -0.0003583853     1    11    13     6
 -0.0003358370     1    11    13     8
 0.0006937530     1    11    13    13
 -0.0009373983     1    11    13    16
 0.0008592480     1    11    14    14
 0.0029980901     1    11    15     5
 0.0003991280     1    11    15    10
 0.0003632821     1    11    15    15
 -0.0094909703     1    11    16     1
 0.0009722851     1    11    16     2
 0.0002442953     1    11    16     4
 -0.0003299495     1    11    16     6
 -0.0005330344     1    11    16     8
 0.0003032430     1    11    16    13
 -0.0005709842     1    11    16    16
 -0.0049638154     1    12     2     3
 -0.0003861317     1    12     2     7
 -0.0001252849     1    12     2     9
 -0.2271795814     1    12     3     1
 -0.0200261455     1    12     3     2
 -0.0028099466     1    12     3     4
 0.0030215880     1    12     3     6
 0.0014518456     1    12     3     8
 0.0018921732     1    12     3    11
 -0.0028672174     1    12     3    13
 0.0054781960     1    12     3    16
 0.0021512731     1    12     4     3
 0.0001662694     1    12     4     7
 0.0015731539     1    12     4     9
 -0.0017603889     1    12     5    14
 -0.0012903675     1    12     6     3
 0.0005828699     1    12     6     7
 0.0004176931     1    12     6     9
 -0.1283181529     1    12     7     1
 -0.0052050362     1    12     7     2
 -0.0017517847     1    12     7     4
 0.0018206624     1    12     7     6
 0.0010342770     1    12     7     8
 0.0011540490     1    12     7    11
 -0.0003253922     1    12     7    13
 0.0017494756     1    12     7    16
 -0.0021341991     1    12     8     3
 -0.0001112432     1    12     8     7
 0.0008303472     1    12     8     9
 0.0678980220     1    12     9     1
 0.0024843005     1    12     9     2
 0.0035187701     1    12     9     4
 -0.0001137966     1    12     9     6
 -0.0000035396     1    12     9     8
 -0.0004878679     1    12     9    11
 0.0004354040     1    12     9    13
 -0.0008324769     1    12     9    16
 0.0004884855     1    12    10    14
 -0.0027750699     1    12    11     3
 -0.0000955082     1    12    11     7
 -0.0001883303     1    12    11     9
 -0.4507757491     1    12    12     1
 -0.0110380550     1    12    12     2
 -0.0048012806     1    12    12     4
 0.0027737666     1    12    12     6
 0.0027198970     1    12    12     8
 0.0026885143     1    12    12    11
 -0.0012253582     1    12    12    13
 0.0048268576     1    12    12    16
 -0.0008218481     1    12    13     3
 0.0002361587     1    12    13     7
 0.0002758628     1    12    13     9
 -0.0020805985     1    12    14     5
 0.0003619688     1    12    14    10
 -0.0011133551     1    12    14    15
 -0.0011487393     1    12    15    14
 -0.0012717449     1    12    16     3
 -0.0003294193     1    12    16     7