&FCI NORB= 11,NELEC= 10,MS2=0,
 ORBSYM=1,1,1,1,1,1,1,1,1,1,1
 ISYM=1,
&END
 1.0062847462     1     1     2     2
 -0.0616970444     1     1     2     3
 -0.0424873835     1     1     2     5
 -0.0579493909     1     1     2     6
 0.0988626791     1     1     2     7
 0.0075830563     1     1     2     8
 0.0579332275     1     1     2     9
 0.0400849042     1     1     2    11
 -0.0616970444     1     1     3     2
 0.9188090705     1     1     3     3
 0.0561338192     1     1     3     5
 0.0496375404     1     1     3     6
 0.1015143830     1     1     3     7
 0.0004979009     1     1     3     8
 -0.0146666145     1     1     3     9
 0.2231500288     1     1     3    11
 1.0161099324     1     1     4     4
 -0.1654957354     1     1     4    10
 -0.0424873835     1     1     5     2
 0.0561338192     1     1     5     3
 0.7178921501     1     1     5     5
 -0.2951226761     1     1     5     6
 -0.0365118939     1     1     5     7
 0.0357676626     1     1     5     8
 -0.0357480402     1     1     5     9
 0.0651575946     1     1     5    11
 -0.0579493909     1     1     6     2
 0.0496375404     1     1     6     3
 -0.2951226761     1     1     6     5
 0.5209250704     1     1     6     6
 0.0195758195     1     1     6     7
 -0.0818665467     1     1     6     8
 0.0113687414     1     1     6     9
 -0.0167221896     1     1     6    11
 0.0988626791     1     1     7     2
 0.1015143830     1     1     7     3
 -0.0365118939     1     1     7     5
 0.0195758195     1     1     7     6
 0.3109236243     1     1     7     7
 -0.0149249928     1     1     7     8
 0.0422011123     1     1     7     9
 0.1130817963     1     1     7    11
 0.0075830563     1     1     8     2
 0.0004979009     1     1     8     3
 0.0357676626     1     1     8     5
 -0.0818665467     1     1     8     6
 -0.0149249928     1     1     8     7
 0.2193675429     1     1     8     8
 -0.0073256581     1     1     8     9
 0.0123227205     1     1     8    11
 0.0579332275     1     1     9     2
 -0.0146666145     1     1     9     3
 -0.0357480402     1     1     9     5
 0.0113687414     1     1     9     6
 0.0422011123     1     1     9     7
 -0.0073256581     1     1     9     8
 0.3336587873     1     1     9     9
 0.0287241762     1     1     9    11
 -0.1654957354     1     1    10     4
 0.3476233877     1     1    10    10
 0.0400849042     1     1    11     2
 0.2231500288     1     1    11     3
 0.0651575946     1     1    11     5
 -0.0167221896     1     1    11     6
 0.1130817963     1     1    11     7
 0.0123227205     1     1    11     8
 0.0287241762     1     1    11     9
 0.4974435989     1     1    11    11
 -1.0062847462     1     2     2     1
 0.0064939389     1     2     2     3
 0.0001995236     1     2     2     5
 0.0009170573     1     2     2     6
 0.0017869764     1     2     2     7
 -0.0000494546     1     2     2     8
 0.0000661671     1     2     2     9
 0.0049476926     1     2     2    11
 0.0616970444     1     2     3     1
 0.0348695127     1     2     3     3
 0.0031660633     1     2     3     5
 0.0022484366     1     2     3     6
 0.0089622712     1     2     3     7
 -0.0000400223     1     2     3     8
 0.0012411822     1     2     3     9
 0.0210976163     1     2     3    11
 0.0435949024     1     2     4     4
 -0.0141875238     1     2     4    10
 0.0424873835     1     2     5     1
 0.0026750745     1     2     5     3
 0.0254595045     1     2     5     5
 -0.0178267937     1     2     5     6
 -0.0016515651     1     2     5     7
 0.0034955576     1     2     5     8
 -0.0023747190     1     2     5     9
 0.0051261170     1     2     5    11
 0.0579493909     1     2     6     1
 0.0016265284     1     2     6     3
 -0.0157354425     1     2     6     5
 0.0150709303     1     2     6     6
 0.0023928000     1     2     6     7
 -0.0029172388     1     2     6     8
 0.0018841780     1     2     6     9
 -0.0016367258     1     2     6    11
 -0.0988626791     1     2     7     1
 0.0076580401     1     2     7     3
 -0.0013003134     1     2     7     5
 0.0024643431     1     2     7     6
 0.0026600383     1     2     7     7
 -0.0003862309     1     2     7     8
 0.0006363929     1     2     7     9
 0.0055232729     1     2     7    11
 -0.0075830563     1     2     8     1
 0.0000249648     1     2     8     3
 0.0029301290     1     2     8     5
 -0.0027658707     1     2     8     6
 -0.0003568082     1     2     8     7
 0.0006645450     1     2     8     8
 -0.0004301002     1     2     8     9
 0.0006199031     1     2     8    11
 -0.0579332275     1     2     9     1
 0.0009992652     1     2     9     3
 -0.0018078566     1     2     9     5
 0.0016400617     1     2     9     6
 0.0005983059     1     2     9     7
 -0.0003992833     1     2     9     8
 0.0004608898     1     2     9     9
 -0.0001108356     1     2     9    11
 -0.0106731322     1     2    10     4
 0.0048450726     1     2    10    10
 -0.0400849042     1     2    11     1
 0.0155430499     1     2    11     3
 0.0040703042     1     2    11     5
 -0.0010896595     1     2    11     6
 0.0046039799     1     2    11     7
 0.0005038652     1     2    11     8
 -0.0002316352     1     2    11     9
 0.0125045102     1     2    11    11
 0.0616970444     1     3     2     1
 -0.0064939389     1     3     2     2
 0.0004935697     1     3     2     5
 0.0005577530     1     3     2     6
 0.0006798120     1     3     2     7
 -0.0000796543     1     3     2     8
 0.0001603789     1     3     2     9
 0.0042743278     1     3     2    11
 -0.9188090705     1     3     3     1
 -0.0348695127     1     3     3     2
 0.0016314380     1     3     3     5
 0.0031255588     1     3     3     6
 -0.0053185129     1     3     3     7
 -0.0006551373     1     3     3     8
 -0.0005592143     1     3     3     9
 -0.0018509845     1     3     3    11
 -0.0127094129     1     3     4     4
 0.0044654325     1     3     4    10
 -0.0561338192     1     3     5     1
 -0.0026750745     1     3     5     2
 -0.0069659813     1     3     5     5
 0.0063054582     1     3     5     6
 0.0003105489     1     3     5     7
 -0.0017013223     1     3     5     8
 -0.0004664230     1     3     5     9
 -0.0011461825     1     3     5    11
 -0.0496375404     1     3     6     1
 -0.0016265284     1     3     6     2
 0.0049763374     1     3     6     5
 -0.0036292355     1     3     6     6
 -0.0004509944     1     3     6     7
 0.0009253889     1     3     6     8
 -0.0004518050     1     3     6     9
 0.0011193734     1     3     6    11
 -0.1015143830     1     3     7     1
 -0.0076580401     1     3     7     2
 0.0010920133     1     3     7     5
 0.0006775951     1     3     7     6
 -0.0040835606     1     3     7     7
 -0.0002171026     1     3     7     8
 -0.0007643897     1     3     7     9
 -0.0030507877     1     3     7    11
 -0.0004979009     1     3     8     1
 -0.0000249648     1     3     8     2
 -0.0009399458     1     3     8     5
 0.0005996811     1     3     8     6
 -0.0000831258     1     3     8     7
 0.0004272284     1     3     8     8
 -0.0004516213     1     3     8     9
 0.0001124898     1     3     8    11
 0.0146666145     1     3     9     1
 -0.0009992652     1     3     9     2
 0.0002636567     1     3     9     5
 -0.0008378603     1     3     9     6
 -0.0009535091     1     3     9     7
 -0.0003335089     1     3     9     8
 -0.0000652399     1     3     9     9
 -0.0039813920     1     3     9    11
 0.0031135982     1     3    10     4
 -0.0004620279     1     3    10    10
 -0.2231500288     1     3    11     1
 -0.0155430499     1     3    11     2
 0.0002277260     1     3    11     5
 0.0031436788     1     3    11     6
 -0.0058772251     1     3    11     7
 -0.0003822172     1     3    11     8
 -0.0042250342     1     3    11     9
 -0.0054928007     1     3    11    11
 -0.0026616442     1     4     2    10
 0.0012078059     1     4     3    10
 -1.0161099324     1     4     4     1
 -0.0435949024     1     4     4     2
 0.0127094129     1     4     4     3
 0.0033015529     1     4     4     5
 0.0052530176     1     4     4     6
 -0.0057573544     1     4     4     7
 -0.0010793569     1     4     4     8
 -0.0065494505     1     4     4     9
 -0.0006751800     1     4     4    11
 -0.0011872738     1     4     5    10
 -0.0001286641     1     4     6    10
 0.0010174490     1     4     7    10
 -0.0005059146     1     4     8    10
 -0.0002987671     1     4     9    10
 0.1654957354     1     4    10     1
 0.0106731322     1     4    10     2
 -0.0031135982     1     4    10     3
 -0.0014025948     1     4    10     5
 -0.0024832063     1     4    10     6
 0.0027402429     1     4    10     7
 -0.0000196266     1     4    10     8
 0.0017982337     1     4    10     9
 -0.0004376204     1     4    10    11
 -0.0006139321     1     4    11    10
 0.0424873835     1     5     2     1
 -0.0001995236     1     5     2     2
 -0.0004935697     1     5     2     3
 -0.0010055307     1     5     2     6
 -0.0002792479     1     5     2     7
 0.0003492950     1     5     2     8
 -0.0004325495     1     5     2     9
 0.0006923992     1     5     2    11
 -0.0561338192     1     5     3     1
 -0.0031660633     1     5     3     2
 -0.0016314380     1     5     3     3
 0.0010907006     1     5     3     6
 -0.0008566821     1     5     3     7
 -0.0006914372     1     5     3     8
 -0.0006715984     1     5     3     9
 -0.0014409328     1     5     3    11
 -0.0033015529     1     5     4     4
 0.0004008131     1     5     4    10
 -0.7178921501     1     5     5     1
 -0.0254595045     1     5     5     2
 0.0069659813     1     5     5     3
 0.0018563970     1     5     5     6
 -0.0035901444     1     5     5     7
 0.0004835927     1     5     5     8
 -0.0039833370     1     5     5     9
 -0.0011188242     1     5     5    11
 0.2951226761     1     5     6     1
 0.0157354425     1     5     6     2
 -0.0049763374     1     5     6     3
 -0.0050459964     1     5     6     6
 0.0019736201     1     5     6     7
 0.0007906155     1     5     6     8
 0.0025727746     1     5     6     9
 0.0006246147     1     5     6    11
 0.0365118939     1     5     7     1
 0.0013003134     1     5     7     2
 -0.0010920133     1     5     7     3
 -0.0003843142     1     5     7     6
 0.0000232877     1     5     7     7
 0.0001732150     1     5     7     8
 0.0003728014     1     5     7     9
 -0.0009089255     1     5     7    11
 -0.0357676626     1     5     8     1
 -0.0029301290     1     5     8     2
 0.0009399458     1     5     8     3
 0.0015124462     1     5     8     6
 -0.0000829772     1     5     8     7
 -0.0016876082     1     5     8     8
 -0.0006293123     1     5     8     9
 0.0002472263     1     5     8    11
 0.0357480402     1     5     9     1
 0.0018078566     1     5     9     2
 -0.0002636567     1     5     9     3
 -0.0003690315     1     5     9     6
 0.0006394858     1     5     9     7
 -0.0001272595     1     5     9     8
 -0.0008272565     1     5     9     9
 0.0008038421     1     5     9    11
 0.0014025948     1     5    10     4
 -0.0025653953     1     5    10    10
 -0.0651575946     1     5    11     1
 -0.0040703042     1     5    11     2
 -0.0002277260     1     5    11     3
 0.0008300758     1     5    11     6
 -0.0016920956     1     5    11     7
 0.0000475323     1     5    11     8
 -0.0005689507     1     5    11     9
 -0.0009342769     1     5    11    11
 0.0579493909     1     6     2     1
 -0.0009170573     1     6     2     2
 -0.0005577530     1     6     2     3
 0.0010055307     1     6     2     5
 -0.0000939161     1     6     2     7
 -0.0001240186     1     6     2     8
 0.0002259189     1     6     2     9
 -0.0005500693     1     6     2    11
 -0.0496375404     1     6     3     1
 -0.0022484366     1     6     3     2
 -0.0031255588     1     6     3     3
 -0.0010907006     1     6     3     5
 -0.0011275852     1     6     3     7
 0.0003251285     1     6     3     8
 0.0003909507     1     6     3     9
 -0.0019954511     1     6     3    11
 -0.0052530176     1     6     4     4
 0.0023711896     1     6     4    10
 0.2951226761     1     6     5     1
 0.0178267937     1     6     5     2
 -0.0063054582     1     6     5     3
 -0.0018563970     1     6     5     5
 0.0024004929     1     6     5     7
 -0.0007588069     1     6     5     8
 0.0030166319     1     6     5     9
 -0.0002245591     1     6     5    11
 -0.5209250704     1     6     6     1
 -0.0150709303     1     6     6     2
 0.0036292355     1     6     6     3
 0.0050459964     1     6     6     5
 -0.0024382566     1     6     6     7
 0.0001587329     1     6     6     8
 -0.0026357379     1     6     6     9
 -0.0002003600     1     6     6    11
 -0.0195758195     1     6     7     1
 -0.0024643431     1     6     7     2
 -0.0006775951     1     6     7     3
 0.0003843142     1     6     7     5
 -0.0010834425     1     6     7     7
 -0.0001050758     1     6     7     8
 -0.0005090185     1     6     7     9
 -0.0007585511     1     6     7    11
 0.0818665467     1     6     8     1
 0.0027658707     1     6     8     2
 -0.0005996811     1     6     8     3
 -0.0015124462     1     6     8     5
 0.0002914610     1     6     8     7
 0.0011045637     1     6     8     8
 0.0005941587     1     6     8     9
 -0.0002379608     1     6     8    11
 -0.0113687414     1     6     9     1
 -0.0016400617     1     6     9     2
 0.0008378603     1     6     9     3
 0.0003690315     1     6     9     5
 -0.0004795530     1     6     9     7
 0.0001043520     1     6     9     8
 0.0005968193     1     6     9     9
 -0.0006511525     1     6     9    11
 0.0024832063     1     6    10     4
 0.0006978400     1     6    10    10
 0.0167221896     1     6    11     1
 0.0010896595     1     6    11     2
 -0.0031436788     1     6    11     3
 -0.0008300758     1     6    11     5
 -0.0003829233     1     6    11     7
 -0.0001776223     1     6    11     8
 -0.0001227103     1     6    11     9
 -0.0023353005     1     6    11    11
 -0.0988626791     1     7     2     1
 -0.0017869764     1     7     2     2
 -0.0006798120     1     7     2     3
 0.0002792479     1     7     2     5
 0.0000939161     1     7     2     6
 -0.0000259336     1     7     2     8
 0.0000292156     1     7     2     9
 0.0008998352     1     7     2    11
 -0.1015143830     1     7     3     1
 -0.0089622712     1     7     3     2
 0.0053185129     1     7     3     3
 0.0008566821     1     7     3     5
 0.0011275852     1     7     3     6
 -0.0001379182     1     7     3     8
 0.0001930094     1     7     3     9
 0.0028208428     1     7     3    11
 0.0057573544     1     7     4     4
 -0.0017144009     1     7     4    10
 0.0365118939     1     7     5     1
 0.0016515651     1     7     5     2
 -0.0003105489     1     7     5     3
 0.0035901444     1     7     5     5
 -0.0024004929     1     7     5     6
 0.0002661037     1     7     5     8
 -0.0002523228     1     7     5     9
 0.0007671677     1     7     5    11
 -0.0195758195     1     7     6     1
 -0.0023928000     1     7     6     2
 0.0004509944     1     7     6     3
 -0.0019736201     1     7     6     5
 0.0024382566     1     7     6     6
 -0.0003973977     1     7     6     8
 -0.0000313496     1     7     6     9
 -0.0003764404     1     7     6    11
 -0.3109236243     1     7     7     1
 -0.0026600383     1     7     7     2
 0.0040835606     1     7     7     3
 -0.0000232877     1     7     7     5
 0.0010834425     1     7     7     6
 -0.0001897471     1     7     7     8
 -0.0000762877     1     7     7     9
 0.0016628611     1     7     7    11
 0.0149249928     1     7     8     1
 0.0003568082     1     7     8     2
 0.0000831258     1     7     8     3
 0.0000829772     1     7     8     5
 -0.0002914610     1     7     8     6
 0.0003571457     1     7     8     8
 -0.0001113530     1     7     8     9
 0.0002023454     1     7     8    11
 -0.0422011123     1     7     9     1
 -0.0005983059     1     7     9     2
 0.0009535091     1     7     9     3
 -0.0006394858     1     7     9     5
 0.0004795530     1     7     9     6
 -0.0002124646     1     7     9     8
 0.0001641487     1     7     9     9
 -0.0008322467     1     7     9    11
 -0.0027402429     1     7    10     4
 0.0014623912     1     7    10    10
 -0.1130817963     1     7    11     1
 -0.0046039799     1     7    11     2
 0.0058772251     1     7    11     3
 0.0016920956     1     7    11     5
 0.0003829233     1     7    11     6
 0.0000619718     1     7    11     8
 -0.0011908800     1     7    11     9
 0.0025668796     1     7    11    11
 -0.0075830563     1     8     2     1
 0.0000494546     1     8     2     2
 0.0000796543     1     8     2     3
 -0.0003492950     1     8     2     5
 0.0001240186     1     8     2     6
 0.0000259336     1     8     2     7
 -0.0000316148     1     8     2     9
 0.0001164243     1     8     2    11
 -0.0004979009     1     8     3     1
 0.0000400223     1     8     3     2
 0.0006551373     1     8     3     3
 0.0006914372     1     8     3     5
 -0.0003251285     1     8     3     6
 0.0001379182     1     8     3     7
 -0.0001125864     1     8     3     9
 0.0004868741     1     8     3    11
 0.0010793569     1     8     4     4
 -0.0004779667     1     8     4    10
 -0.0357676626     1     8     5     1
 -0.0034955576     1     8     5     2
 0.0017013223     1     8     5     3
 -0.0004835927     1     8     5     5
 0.0007588069     1     8     5     6
 -0.0002661037     1     8     5     7
 -0.0005170708     1     8     5     9
 0.0002053237     1     8     5    11
 0.0818665467     1     8     6     1
 0.0029172388     1     8     6     2
 -0.0009253889     1     8     6     3
 -0.0007906155     1     8     6     5
 -0.0001587329     1     8     6     6
 0.0003973977     1     8     6     7
 0.0004891702     1     8     6     9
 -0.0000600846     1     8     6    11
 0.0149249928     1     8     7     1
 0.0003862309     1     8     7     2
 0.0002171026     1     8     7     3
 -0.0001732150     1     8     7     5
 0.0001050758     1     8     7     6
 0.0001897471     1     8     7     7
 0.0001002736     1     8     7     9
 0.0001405961     1     8     7    11
 -0.2193675429     1     8     8     1
 -0.0006645450     1     8     8     2
 -0.0004272284     1     8     8     3
 0.0016876082     1     8     8     5
 -0.0011045637     1     8     8     6
 -0.0003571457     1     8     8     7
 -0.0002809855     1     8     8     9
 -0.0000896838     1     8     8    11
 0.0073256581     1     8     9     1
 0.0003992833     1     8     9     2
 0.0003335089     1     8     9     3
 0.0001272595     1     8     9     5
 -0.0001043520     1     8     9     6
 0.0002124646     1     8     9     7
 -0.0001058061     1     8     9     9
 0.0004148390     1     8     9    11
 0.0000196266     1     8    10     4
 -0.0002887945     1     8    10    10
 -0.0123227205     1     8    11     1
 -0.0005038652     1     8    11     2
 0.0003822172     1     8    11     3
 -0.0000475323     1     8    11     5
 0.0001776223     1     8    11     6
 -0.0000619718     1     8    11     7
 -0.0000294527     1     8    11     9
 0.0001916230     1     8    11    11
 -0.0579332275     1     9     2     1
 -0.0000661671     1     9     2     2
 -0.0001603789     1     9     2     3
 0.0004325495     1     9     2     5
 -0.0002259189     1     9     2     6
 -0.0000292156     1     9     2     7
 0.0000316148     1     9     2     8
 0.0001312703     1     9     2    11
 0.0146666145     1     9     3     1
 -0.0012411822     1     9     3     2
 0.0005592143     1     9     3     3
 0.0006715984     1     9     3     5
 -0.0003909507     1     9     3     6
 -0.0001930094     1     9     3     7
 0.0001125864     1     9     3     8
 0.0002725092     1     9     3    11
 0.0065494505     1     9     4     4
 -0.0021145307     1     9     4    10
 0.0357480402     1     9     5     1
 0.0023747190     1     9     5     2
 0.0004664230     1     9     5     3
 0.0039833370     1     9     5     5
 -0.0030166319     1     9     5     6
 0.0002523228     1     9     5     7
 0.0005170708     1     9     5     8
 0.0013423945     1     9     5    11
 -0.0113687414     1     9     6     1
 -0.0018841780     1     9     6     2
 0.0004518050     1     9     6     3
 -0.0025727746     1     9     6     5
 0.0026357379     1     9     6     6
 0.0000313496     1     9     6     7
 -0.0004891702     1     9     6     8
 -0.0005326760     1     9     6    11
 -0.0422011123     1     9     7     1
 -0.0006363929     1     9     7     2
 0.0007643897     1     9     7     3
 -0.0003728014     1     9     7     5
 0.0005090185     1     9     7     6
 0.0000762877     1     9     7     7
 -0.0001002736     1     9     7     8
 0.0003572795     1     9     7    11
 0.0073256581     1     9     8     1
 0.0004301002     1     9     8     2
 0.0004516213     1     9     8     3
 0.0006293123     1     9     8     5
 -0.0005941587     1     9     8     6
 0.0001113530     1     9     8     7
 0.0002809855     1     9     8     8
 0.0004447164     1     9     8    11
 -0.3336587873     1     9     9     1
 -0.0004608898     1     9     9     2
 0.0000652399     1     9     9     3
 0.0008272565     1     9     9     5
 -0.0005968193     1     9     9     6
 -0.0001641487     1     9     9     7
 0.0001058061     1     9     9     8
 -0.0001407168     1     9     9    11
 -0.0017982337     1     9    10     4
 0.0009073431     1     9    10    10
 -0.0287241762     1     9    11     1
 0.0002316352     1     9    11     2
 0.0042250342     1     9    11     3
 0.0005689507     1     9    11     5
 0.0001227103     1     9    11     6
 0.0011908800     1     9    11     7
 0.0000294527     1     9    11     8
 0.0027558673     1     9    11    11
 0.0026616442     1    10     2     4
 -0.0012078059     1    10     3     4
 0.1654957354     1    10     4     1
 0.0141875238     1    10     4     2
 -0.0044654325     1    10     4     3
 -0.0004008131     1    10     4     5
 -0.0023711896     1    10     4     6
 0.0017144009     1    10     4     7
 0.0004779667     1    10     4     8
 0.0021145307     1    10     4     9
 0.0001284952     1    10     4    11
 0.0011872738     1    10     5     4
 0.0001286641     1    10     6     4
 -0.0010174490     1    10     7     4
 0.0005059146     1    10     8     4
 0.0002987671     1    10     9     4
 -0.3476233877     1    10    10     1
 -0.0048450726     1    10    10     2
 0.0004620279     1    10    10     3
 0.0025653953     1    10    10     5
 -0.0006978400     1    10    10     6
 -0.0014623912     1    10    10     7
 0.0002887945     1    10    10     8
 -0.0009073431     1    10    10     9
 -0.0000919673     1    10    10    11
 0.0006139321     1    10    11     4
 -0.0400849042     1    11     2     1
 -0.0049476926     1    11     2     2
 -0.0042743278     1    11     2     3
 -0.0006923992     1    11     2     5
 0.0005500693     1    11     2     6
 -0.0008998352     1    11     2     7
 -0.0001164243     1    11     2     8
 -0.0001312703     1    11     2     9
 -0.2231500288     1    11     3     1
 -0.0210976163     1    11     3     2
 0.0018509845     1    11     3     3
 0.0014409328     1    11     3     5
 0.0019954511     1    11     3     6
 -0.0028208428     1    11     3     7
 -0.0004868741     1    11     3     8
 -0.0002725092     1    11     3     9
 0.0006751800     1    11     4     4
 -0.0001284952     1    11     4    10
 -0.0651575946     1    11     5     1
 -0.0051261170     1    11     5     2
 0.0011461825     1    11     5     3
 0.0011188242     1    11     5     5
 0.0002245591     1    11     5     6
 -0.0007671677     1    11     5     7
 -0.0002053237     1    11     5     8
 -0.0013423945     1    11     5     9
 0.0167221896     1    11     6     1
 0.0016367258     1    11     6     2
 -0.0011193734     1    11     6     3
 -0.0006246147     1    11     6     5
 0.0002003600     1    11     6     6
 0.0003764404     1    11     6     7
 0.0000600846     1    11     6     8
 0.0005326760     1    11     6     9
 -0.1130817963     1    11     7     1
 -0.0055232729     1    11     7     2
 0.0030507877     1    11     7     3
 0.0009089255     1    11     7     5
 0.0007585511     1    11     7     6
 -0.0016628611     1    11     7     7
 -0.0001405961     1    11     7     8
 -0.0003572795     1    11     7     9
 -0.0123227205     1    11     8     1
 -0.0006199031     1    11     8     2
 -0.0001124898     1    11     8     3
 -0.0002472263     1    11     8     5
 0.0002379608     1    11     8     6
 -0.0002023454     1    11     8     7
 0.0000896838     1    11     8     8
 -0.0004447164     1    11     8     9
 -0.0287241762     1    11     9     1
 0.0001108356     1    11     9     2
 0.0039813920     1    11     9     3
 -0.0008038421     1    11     9     5
 0.0006511525     1    11     9     6
 0.0008322467     1    11     9     7
 -0.0004148390     1    11     9     8
 0.0001407168     1    11     9     9
 0.0004376204     1    11    10     4
 0.0000919673     1    11    10    10
 -0.4974435989     1    11    11     1
 -0.0125045102     1    11    11     2
 0.0054928007     1    11    11     3
 0.0009342769     1    11    11     5
 0.0023353005     1    11    11     6
 -0.0025668796     1    11    11     7
 -0.0001916230     1    11    11     8
 -0.0027558673     1    11    11     9
 -1.0062847462     2     1     1     2
 0.0616970444     2     1     1     3
 0.0424873835     2     1     1     5
 0.0579493909     2     1     1     6
 -0.0988626791     2     1     1     7
 -0.0075830563     2     1     1     8
 -0.0579332275     2     1     1     9
 -0.0400849042     2     1     1    11
 0.0064939389     2     1     3     2
 0.0348695127     2     1     3     3
 0.0026750745     2     1     3     5
 0.0016265284     2     1     3     6
 0.0076580401     2     1     3     7
 0.0000249648     2     1     3     8
 0.0009992652     2     1     3     9
 0.0155430499     2     1     3    11
 0.0435949024     2     1     4     4
 -0.0106731322     2     1     4    10
 0.0001995236     2     1     5     2
 0.0031660633     2     1     5     3
 0.0254595045     2     1     5     5
 -0.0157354425     2     1     5     6
 -0.0013003134     2     1     5     7
 0.0029301290     2     1     5     8
 -0.0018078566     2     1     5     9
 0.0040703042     2     1     5    11
 0.0009170573     2     1     6     2
 0.0022484366     2     1     6     3
 -0.0178267937     2     1     6     5
 0.0150709303     2     1     6     6
 0.0024643431     2     1     6     7
 -0.0027658707     2     1     6     8
 0.0016400617     2     1     6     9
 -0.0010896595     2     1     6    11
 0.0017869764     2     1     7     2
 0.0089622712     2     1     7     3
 -0.0016515651     2     1     7     5
 0.0023928000     2     1     7     6
 0.0026600383     2     1     7     7
 -0.0003568082     2     1     7     8
 0.0005983059     2     1     7     9
 0.0046039799     2     1     7    11
 -0.0000494546     2     1     8     2
 -0.0000400223     2     1     8     3
 0.0034955576     2     1     8     5
 -0.0029172388     2     1     8     6
 -0.0003862309     2     1     8     7
 0.0006645450     2     1     8     8
 -0.0003992833     2     1     8     9
 0.0005038652     2     1     8    11
 0.0000661671     2     1     9     2
 0.0012411822     2     1     9     3
 -0.0023747190     2     1     9     5
 0.0018841780     2     1     9     6
 0.0006363929     2     1     9     7
 -0.0004301002     2     1     9     8
 0.0004608898     2     1     9     9
 -0.0002316352     2     1     9    11
 -0.0141875238     2     1    10     4
 0.0048450726     2     1    10    10
 0.0049476926     2     1    11     2
 0.0210976163     2     1    11     3
 0.0051261170     2     1    11     5
 -0.0016367258     2     1    11     6
 0.0055232729     2     1    11     7
 0.0006199031     2     1    11     8
 -0.0001108356     2     1    11     9
 0.0125045102     2     1    11    11
 1.0062847462     2     2     1     1
 -0.0064939389     2     2     1     3
 -0.0001995236     2     2     1     5
 -0.0009170573     2     2     1     6
 -0.0017869764     2     2     1     7
 0.0000494546     2     2     1     8
 -0.0000661671     2     2     1     9
 -0.0049476926     2     2     1    11
 -0.0064939389     2     2     3     1
 0.5414567291     2     2     3     3
 0.0230436369     2     2     3     5
 0.0219336663     2     2     3     6
 0.0425600379     2     2     3     7
 0.0019455192     2     2     3     8
 -0.0161465630     2     2     3     9
 0.0791637833     2     2     3    11
 0.5863516095     2     2     4     4
 -0.0684928973     2     2     4    10
 -0.0001995236     2     2     5     1
 0.0230436369     2     2     5     3
 0.4544834425     2     2     5     5
 -0.1458979153     2     2     5     6
 -0.0175367465     2     2     5     7
 0.0100141552     2     2     5     8
 -0.0128721379     2     2     5     9
 0.0283179864     2     2     5    11
 -0.0009170573     2     2     6     1
 0.0219336663     2     2     6     3
 -0.1458979153     2     2     6     5
 0.3636190943     2     2     6     6
 0.0050568999     2     2     6     7
 -0.0530009608     2     2     6     8
 0.0033253130     2     2     6     9
 -0.0045000041     2     2     6    11
 -0.0017869764     2     2     7     1
 0.0425600379     2     2     7     3
 -0.0175367465     2     2     7     5
 0.0050568999     2     2     7     6
 0.2796735466     2     2     7     7
 -0.0116702564     2     2     7     8
 0.0253988979     2     2     7     9
 0.0705404638     2     2     7    11
 0.0000494546     2     2     8     1
 0.0019455192     2     2     8     3
 0.0100141552     2     2     8     5