&FCI NORB= 13,NELEC= 16,MS2=0,
 ORBSYM=1,1,1,1,1,1,1,1,1,1,1,1,1
 ISYM=1,
&END
 0.3952120918     1     1     2     2
 -0.0000000022     1     1     2     3
 0.0051153572     1     1     2     4
 -0.0000000065     1     1     2     7
 -0.0000000012     1     1     2    10
 -0.0014763179     1     1     2    11
 -0.0000000022     1     1     3     2
 0.6005051094     1     1     3     3
 -0.0000001477     1     1     3     4
 0.1102543307     1     1     3     7
 -0.0344299122     1     1     3    10
 0.0000000343     1     1     3    11
 0.0051153572     1     1     4     2
 -0.0000001477     1     1     4     3
 0.4828964055     1     1     4     4
 0.0000001320     1     1     4     7
 0.0000000411     1     1     4    10
 -0.0591715934     1     1     4    11
 0.4803890248     1     1     5     5
 0.0000001459     1     1     5     6
 0.0000000802     1     1     5     8
 0.0220090759     1     1     5     9
 0.0000000430     1     1     5    12
 -0.0650144519     1     1     5    13
 0.0000001459     1     1     6     5
 0.4805290667     1     1     6     6
 -0.0378143608     1     1     6     8
 -0.0000000559     1     1     6     9
 0.0638038335     1     1     6    12
 -0.0000000171     1     1     6    13
 -0.0000000065     1     1     7     2
 0.1102543307     1     1     7     3
 0.0000001320     1     1     7     4
 0.5613262759     1     1     7     7
 0.0466702276     1     1     7    10
 -0.0000000119     1     1     7    11
 0.0000000802     1     1     8     5
 -0.0378143608     1     1     8     6
 0.5073030823     1     1     8     8
 0.0000001042     1     1     8     9
 -0.0052608160     1     1     8    12
 -0.0000000055     1     1     8    13
 0.0220090759     1     1     9     5
 -0.0000000559     1     1     9     6
 0.0000001042     1     1     9     8
 0.4411142340     1     1     9     9
 -0.0000000019     1     1     9    12
 -0.0011188390     1     1     9    13
 -0.0000000012     1     1    10     2
 -0.0344299122     1     1    10     3
 0.0000000411     1     1    10     4
 0.0466702276     1     1    10     7
 0.2192318576     1     1    10    10
 -0.0000000380     1     1    10    11
 -0.0014763179     1     1    11     2
 0.0000000343     1     1    11     3
 -0.0591715934     1     1    11     4
 -0.0000000119     1     1    11     7
 -0.0000000380     1     1    11    10
 0.2135552665     1     1    11    11
 0.0000000430     1     1    12     5
 0.0638038335     1     1    12     6
 -0.0052608160     1     1    12     8
 -0.0000000019     1     1    12     9
 0.2109247799     1     1    12    12
 -0.0000000324     1     1    12    13
 -0.0650144519     1     1    13     5
 -0.0000000171     1     1    13     6
 -0.0000000055     1     1    13     8
 -0.0011188390     1     1    13     9
 -0.0000000324     1     1    13    12
 0.2119792075     1     1    13    13
 -0.3952120918     1     2     2     1
 0.0044466813     1     2     2     3
 0.0000000025     1     2     2     4
 0.0129316729     1     2     2     7
 0.0024132787     1     2     2    10
 -0.0000000007     1     2     2    11
 0.0000000022     1     2     3     1
 -0.0000000005     1     2     3     3
 0.1484695646     1     2     3     4
 -0.0000000003     1     2     3     7
 0.0000000002     1     2     3    10
 -0.0346039214     1     2     3    11
 -0.0051153572     1     2     4     1
 0.1485896457     1     2     4     3
 -0.0000000002     1     2     4     4
 -0.1318193429     1     2     4     7
 -0.0407333926     1     2     4    10
 -0.0000000003     1     2     4    11
 -0.0000000124     1     2     5     5
 -0.1462518263     1     2     5     6
 -0.0823341492     1     2     5     8
 0.0000000018     1     2     5     9
 -0.0296022411     1     2     5    12
 -0.0000000036     1     2     5    13
 -0.1462427098     1     2     6     5
 0.0000000121     1     2     6     6
 0.0000000033     1     2     6     8
 0.0550743212     1     2     6     9
 -0.0000000040     1     2     6    12
 0.0306369889     1     2     6    13
 0.0000000065     1     2     7     1
 -0.0000000003     1     2     7     3
 -0.1321608198     1     2     7     4
 0.0000000002     1     2     7     7
 -0.0000000001     1     2     7    10
 0.0123445219     1     2     7    11
 -0.0820767388     1     2     8     5
 0.0000000033     1     2     8     6
 0.0000000011     1     2     8     8
 -0.1043402814     1     2     8     9
 -0.0000000006     1     2     8    12
 0.0043490677     1     2     8    13
 0.0000000018     1     2     9     5
 0.0548602556     1     2     9     6
 -0.1043275027     1     2     9     8
 -0.0000000009     1     2     9     9
 0.0018393764     1     2     9    12
 0.0000000005     1     2     9    13
 0.0000000012     1     2    10     1
 0.0000000002     1     2    10     3
 -0.0407883117     1     2    10     4
 -0.0000000001     1     2    10     7
 -0.0000000005     1     2    10    10
 0.0381876969     1     2    10    11
 0.0014763179     1     2    11     1
 -0.0346240445     1     2    11     3
 -0.0000000003     1     2    11     4
 0.0122468177     1     2    11     7
 0.0381689446     1     2    11    10
 0.0000000005     1     2    11    11
 -0.0295863745     1     2    12     5
 -0.0000000039     1     2    12     6
 -0.0000000006     1     2    12     8
 0.0019224332     1     2    12     9
 -0.0000000109     1     2    12    12
 0.0322368039     1     2    12    13
 -0.0000000036     1     2    13     5
 0.0306241335     1     2    13     6
 0.0044553217     1     2    13     8
 0.0000000005     1     2    13     9
 0.0322370138     1     2    13    12
 0.0000000107     1     2    13    13
 0.0000000022     1     3     2     1
 -0.0044466813     1     3     2     2
 -0.0001206917     1     3     2     4
 0.0000302154     1     3     2    11
 -0.6005051094     1     3     3     1
 0.0000000005     1     3     3     2
 0.0000000020     1     3     3     4
 0.0095614011     1     3     3     7
 0.0026467315     1     3     3    10
 -0.0000000007     1     3     3    11
 0.0000001477     1     3     4     1
 -0.1485896457     1     3     4     2
 0.0052181830     1     3     4     4
 0.0000000056     1     3     4     7
 0.0000000012     1     3     4    10
 -0.0012164338     1     3     4    11
 0.0110679832     1     3     5     5
 0.0000000054     1     3     5     6
 0.0000000035     1     3     5     8
 0.0017375319     1     3     5     9
 0.0000000027     1     3     5    12
 -0.0040161428     1     3     5    13
 0.0000000053     1     3     6     5
 0.0109869936     1     3     6     6
 -0.0024889949     1     3     6     8
 -0.0000000028     1     3     6     9
 0.0039371429     1     3     6    12
 -0.0000000011     1     3     6    13
 -0.1102543307     1     3     7     1
 0.0000000003     1     3     7     2
 0.0000000061     1     3     7     4
 0.0177566517     1     3     7     7
 0.0047455123     1     3     7    10
 -0.0000000016     1     3     7    11
 0.0000000021     1     3     8     5
 -0.0020745355     1     3     8     6
 0.0117005398     1     3     8     8
 0.0000000051     1     3     8     9
 -0.0005615505     1     3     8    12
 -0.0000000004     1     3     8    13
 0.0011864229     1     3     9     5
 -0.0000000013     1     3     9     6
 0.0000000046     1     3     9     8
 0.0080263173     1     3     9     9
 -0.0000000003     1     3     9    12
 -0.0003439216     1     3     9    13
 0.0344299122     1     3    10     1
 -0.0000000002     1     3    10     2
 0.0000000008     1     3    10     4
 0.0022145847     1     3    10     7
 0.0008470575     1     3    10    10
 -0.0000000006     1     3    10    11
 -0.0000000343     1     3    11     1
 0.0346240445     1     3    11     2
 -0.0008704846     1     3    11     4
 -0.0000000008     1     3    11     7
 -0.0000000006     1     3    11    10
 0.0005934999     1     3    11    11
 0.0000000020     1     3    12     5
 0.0026945162     1     3    12     6
 -0.0003086360     1     3    12     8
 -0.0000000005     1     3    12     9
 0.0013990471     1     3    12    12
 -0.0000000009     1     3    12    13
 -0.0027778522     1     3    13     5
 -0.0000000008     1     3    13     6
 -0.0000000006     1     3    13     8
 -0.0002273154     1     3    13     9
 -0.0000000009     1     3    13    12
 0.0014692605     1     3    13    13
 -0.0051153572     1     4     2     1
 -0.0000000025     1     4     2     2
 0.0001206917     1     4     2     3
 0.0003417249     1     4     2     7
 0.0000648068     1     4     2    10
 0.0000001477     1     4     3     1
 -0.1484695646     1     4     3     2
 -0.0000000020     1     4     3     3
 -0.0000000006     1     4     3     7
 0.0000000003     1     4     3    10
 -0.0002156447     1     4     3    11
 -0.4828964055     1     4     4     1
 0.0000000002     1     4     4     2
 -0.0052181830     1     4     4     3
 -0.0025482695     1     4     4     7
 0.0001415757     1     4     4    10
 -0.0000000055     1     4     5     5
 -0.0064443930     1     4     5     6
 -0.0017235708     1     4     5     8
 -0.0000000004     1     4     5     9
 -0.0030257020     1     4     5    12
 0.0000000016     1     4     5    13
 -0.0064775376     1     4     6     5
 -0.0000000045     1     4     6     6
 0.0000000006     1     4     6     8
 0.0007640105     1     4     6     9
 -0.0000000023     1     4     6    12
 0.0031610860     1     4     6    13
 -0.0000001320     1     4     7     1
 0.1321608198     1     4     7     2
 -0.0000000061     1     4     7     3
 -0.0000000080     1     4     7     7
 -0.0000000007     1     4     7    10
 0.0001969755     1     4     7    11
 -0.0040336356     1     4     8     5
 0.0000000006     1     4     8     6
 -0.0000000056     1     4     8     8
 -0.0059828258     1     4     8     9
 -0.0000000003     1     4     8    12
 0.0017337739     1     4     8    13
 -0.0000000002     1     4     9     5
 0.0023870212     1     4     9     6
 -0.0056141110     1     4     9     8
 -0.0000000040     1     4     9     9
 0.0016026685     1     4     9    12
 0.0000000003     1     4     9    13
 -0.0000000411     1     4    10     1
 0.0407883117     1     4    10     2
 -0.0000000008     1     4    10     3
 -0.0000000013     1     4    10     7
 -0.0000000003     1     4    10    10
 -0.0004167180     1     4    10    11
 0.0591715934     1     4    11     1
 0.0000000003     1     4    11     2
 0.0008704846     1     4    11     3
 0.0006260126     1     4    11     7
 -0.0004852606     1     4    11    10
 -0.0000000001     1     4    11    11
 -0.0018096412     1     4    12     5
 -0.0000000015     1     4    12     6
 0.0006437461     1     4    12     9
 -0.0000000009     1     4    12    12
 0.0005981265     1     4    12    13
 0.0000000010     1     4    13     5
 0.0018900497     1     4    13     6
 0.0005213834     1     4    13     8
 0.0000000002     1     4    13     9
 0.0005953751     1     4    13    12
 -0.0000000004     1     4    13    13
 -0.0000079184     1     5     2     6
 -0.0002532105     1     5     2     8
 -0.0000115151     1     5     2    12
 0.0000000013     1     5     3     8
 0.0003374102     1     5     3     9
 0.0000000006     1     5     3    12
 -0.0009286358     1     5     3    13
 0.0000327364     1     5     4     6
 0.0022959927     1     5     4     8
 -0.0000000002     1     5     4     9
 -0.0010318376     1     5     4    12
 0.0000000004     1     5     4    13
 -0.4803890248     1     5     5     1
 0.0000000124     1     5     5     2
 -0.0110679832     1     5     5     3
 0.0000000055     1     5     5     4
 0.0034649050     1     5     5     7
 0.0020401875     1     5     5    10
 -0.0000000013     1     5     5    11
 -0.0000001459     1     5     6     1
 0.1462427098     1     5     6     2
 -0.0000000053     1     5     6     3
 0.0064775376     1     5     6     4
 -0.0000000017     1     5     6     7
 0.0000000003     1     5     6    10
 -0.0011357653     1     5     6    11
 0.0000000010     1     5     7     8
 -0.0009889431     1     5     7     9
 -0.0000000006     1     5     7    12
 0.0010739516     1     5     7    13
 -0.0000000802     1     5     8     1
 0.0820767388     1     5     8     2
 -0.0000000021     1     5     8     3
 0.0040336356     1     5     8     4
 -0.0000000006     1     5     8     7
 0.0000000002     1     5     8    10
 -0.0009795125     1     5     8    11
 -0.0220090759     1     5     9     1
 -0.0000000018     1     5     9     2
 -0.0011864229     1     5     9     3
 0.0000000002     1     5     9     4
 0.0005417897     1     5     9     7
 0.0004718675     1     5     9    10
 -0.0000000003     1     5     9    11
 0.0000000002     1     5    10     8
 -0.0000995372     1     5    10     9
 0.0000000007     1     5    10    12
 -0.0011604686     1     5    10    13
 -0.0000031038     1     5    11     6
 -0.0000095538     1     5    11     8
 -0.0009703749     1     5    11    12
 0.0000000002     1     5    11    13
 -0.0000000430     1     5    12     1
 0.0295863745     1     5    12     2
 -0.0000000020     1     5    12     3
 0.0018096412     1     5    12     4
 -0.0000000002     1     5    12     7
 0.0000000011     1     5    12    10
 -0.0015751092     1     5    12    11
 0.0650144519     1     5    13     1
 0.0000000036     1     5    13     2
 0.0027778522     1     5    13     3
 -0.0000000010     1     5    13     4
 -0.0004770507     1     5    13     7
 -0.0019899937     1     5    13    10
 0.0000000006     1     5    13    11
 0.0000079184     1     6     2     5
 0.0000000001     1     6     2     8
 0.0002080215     1     6     2     9
 0.0000075957     1     6     2    13
 -0.0003493335     1     6     3     8
 -0.0000000012     1     6     3     9
 0.0009343050     1     6     3    12
 -0.0000000002     1     6     3    13
 -0.0000327364     1     6     4     5
 0.0000000001     1     6     4     8
 -0.0019702944     1     6     4     9
 -0.0000000007     1     6     4    12
 0.0010833294     1     6     4    13
 -0.0000001459     1     6     5     1
 0.1462518263     1     6     5     2
 -0.0000000054     1     6     5     3
 0.0064443930     1     6     5     4
 -0.0000000016     1     6     5     7
 0.0000000003     1     6     5    10
 -0.0011433480     1     6     5    11
 -0.4805290667     1     6     6     1
 -0.0000000121     1     6     6     2
 -0.0109869936     1     6     6     3
 0.0000000045     1     6     6     4
 0.0035317358     1     6     6     7
 0.0020433473     1     6     6    10
 -0.0000000011     1     6     6    11
 0.0012064998     1     6     7     8
 -0.0000000008     1     6     7     9
 -0.0010097708     1     6     7    12
 0.0000000002     1     6     7    13
 0.0378143608     1     6     8     1
 -0.0000000033     1     6     8     2
 0.0020745355     1     6     8     3
 -0.0000000006     1     6     8     4
 -0.0008285491     1     6     8     7
 -0.0007063995     1     6     8    10
 0.0000000004     1     6     8    11
 0.0000000559     1     6     9     1
 -0.0548602556     1     6     9     2
 0.0000000013     1     6     9     3
 -0.0023870212     1     6     9     4
 0.0000000004     1     6     9     7
 -0.0000000001     1     6     9    10
 0.0006171272     1     6     9    11
 0.0000207646     1     6    10     8
 -0.0000000001     1     6    10     9
 0.0011632025     1     6    10    12
 -0.0000000002     1     6    10    13
 0.0000031038     1     6    11     5
 -0.0000000001     1     6    11     8
 0.0000665576     1     6    11     9
 -0.0000000005     1     6    11    12
 0.0009695720     1     6    11    13
 -0.0638038335     1     6    12     1
 0.0000000039     1     6    12     2
 -0.0026945162     1     6    12     3
 0.0000000015     1     6    12     4
 0.0004672829     1     6    12     7
 0.0019675401     1     6    12    10
 -0.0000000010     1     6    12    11
 0.0000000171     1     6    13     1
 -0.0306241335     1     6    13     2
 0.0000000008     1     6    13     3
 -0.0018900497     1     6    13     4
 0.0000000004     1     6    13     7
 -0.0000000002     1     6    13    10
 0.0016068411     1     6    13    11
 0.0000000065     1     7     2     1
 -0.0129316729     1     7     2     2
 -0.0003417249     1     7     2     4
 0.0001004502     1     7     2    11
 -0.1102543307     1     7     3     1
 0.0000000003     1     7     3     2
 -0.0095614011     1     7     3     3
 0.0000000006     1     7     3     4
 0.0023203440     1     7     3    10
 -0.0000000006     1     7     3    11
 -0.0000001320     1     7     4     1
 0.1318193429     1     7     4     2
 -0.0000000056     1     7     4     3
 0.0025482695     1     7     4     4
 0.0000000007     1     7     4    10
 -0.0004427516     1     7     4    11
 -0.0034649050     1     7     5     5
 0.0000000016     1     7     5     6
 0.0000000016     1     7     5     8
 -0.0015568482     1     7     5     9
 -0.0000000004     1     7     5    12
 0.0016333346     1     7     5    13
 0.0000000017     1     7     6     5
 -0.0035317358     1     7     6     6
 0.0019797466     1     7     6     8
 -0.0000000012     1     7     6     9
 -0.0015685763     1     7     6    12
 -0.0000000003     1     7     6    13
 -0.5613262759     1     7     7     1
 -0.0000000002     1     7     7     2
 -0.0177566517     1     7     7     3
 0.0000000080     1     7     7     4
 0.0041854152     1     7     7    10
 -0.0000000020     1     7     7    11
 0.0000000006     1     7     8     5
 0.0008285491     1     7     8     6
 -0.0030957701     1     7     8     8
 0.0000000016     1     7     8     9
 -0.0000413432     1     7     8    12
 0.0000000004     1     7     8    13
 -0.0005417897     1     7     9     5
 -0.0000000004     1     7     9     6
 0.0000000013     1     7     9     8
 -0.0020732627     1     7     9     9
 0.0000000005     1     7     9    12
 0.0000301913     1     7     9    13
 -0.0466702276     1     7    10     1
 0.0000000001     1     7    10     2
 -0.0022145847     1     7    10     3
 0.0000000013     1     7    10     4
 0.0003936807     1     7    10    10
 -0.0000000011     1     7    10    11
 0.0000000119     1     7    11     1
 -0.0122468177     1     7    11     2
 0.0000000008     1     7    11     3
 -0.0006260126     1     7    11     4
 -0.0000000010     1     7    11    10
 0.0004657778     1     7    11    11
 0.0000000002     1     7    12     5
 -0.0004672829     1     7    12     6
 0.0002101172     1     7    12     8
 -0.0000000001     1     7    12     9
 -0.0003205102     1     7    12    12
 -0.0000000006     1     7    12    13
 0.0004770507     1     7    13     5
 -0.0000000004     1     7    13     6
 -0.0000000001     1     7    13     8
 0.0002511936     1     7    13     9
 -0.0000000006     1     7    13    12
 -0.0003323505     1     7    13    13
 0.0002532105     1     8     2     5
 -0.0000000001     1     8     2     6
 -0.0000107802     1     8     2     9
 -0.0001064831     1     8     2    13
 -0.0000000013     1     8     3     5
 0.0003493335     1     8     3     6
 0.0000000001     1     8     3     9
 -0.0002151460     1     8     3    12
 0.0000000003     1     8     3    13
 -0.0022959927     1     8     4     5
 -0.0000000001     1     8     4     6
 0.0001384762     1     8     4     9
 -0.0000000003     1     8     4    12
 0.0011539133     1     8     4    13
 -0.0000000802     1     8     5     1
 0.0823341492     1     8     5     2
 -0.0000000035     1     8     5     3
 0.0017235708     1     8     5     4
 -0.0000000016     1     8     5     7
 -0.0009184851     1     8     5    11
 0.0378143608     1     8     6     1
 -0.0000000033     1     8     6     2
 0.0024889949     1     8     6     3
 -0.0000000006     1     8     6     4
 -0.0019797466     1     8     6     7
 -0.0007187745     1     8     6    10
 0.0000000005     1     8     6    11
 -0.0000000010     1     8     7     5
 -0.0012064998     1     8     7     6
 0.0000000001     1     8     7     9
 -0.0002470678     1     8     7    12
 0.0000000006     1     8     7    13
 -0.5073030823     1     8     8     1
 -0.0000000011     1     8     8     2
 -0.0117005398     1     8     8     3
 0.0000000056     1     8     8     4
 0.0030957701     1     8     8     7
 0.0028977325     1     8     8    10
 -0.0000000019     1     8     8    11
 -0.0000001042     1     8     9     1
 0.1043275027     1     8     9     2
 -0.0000000046     1     8     9     3
 0.0056141110     1     8     9     4
 -0.0000000013     1     8     9     7
 0.0000000005     1     8     9    10
 -0.0024876783     1     8     9    11
 -0.0000000002     1     8    10     5
 -0.0000207646     1     8    10     6
 -0.0006711286     1     8    10    12
 -0.0000000005     1     8    10    13
 0.0000095538     1     8    11     5
 0.0000000001     1     8    11     6
 -0.0002075504     1     8    11     9
 -0.0000000002     1     8    11    12
 -0.0003596263     1     8    11    13
 0.0052608160     1     8    12     1
 0.0000000006     1     8    12     2
 0.0003086360     1     8    12     3
 -0.0002101172     1     8    12     7
 -0.0008118661     1     8    12    10
 -0.0000000001     1     8    12    11
 0.0000000055     1     8    13     1
 -0.0044553217     1     8    13     2
 0.0000000006     1     8    13     3
 -0.0005213834     1     8    13     4
 0.0000000001     1     8    13     7
 -0.0000000007     1     8    13    10
 0.0000502870     1     8    13    11
 -0.0002080215     1     9     2     6
 0.0000107802     1     9     2     8
 -0.0000880234     1     9     2    12
 -0.0003374102     1     9     3     5
 0.0000000012     1     9     3     6
 -0.0000000001     1     9     3     8
 0.0000000002     1     9     3    12
 -0.0001080140     1     9     3    13
 0.0000000002     1     9     4     5
 0.0019702944     1     9     4     6
 -0.0001384762     1     9     4     8
 0.0009586696     1     9     4    12
 0.0000000001     1     9     4    13
 -0.0220090759     1     9     5     1
 -0.0000000018     1     9     5     2
 -0.0017375319     1     9     5     3
 0.0000000004     1     9     5     4
 0.0015568482     1     9     5     7
 0.0005336440     1     9     5    10
 -0.0000000004     1     9     5    11
 0.0000000559     1     9     6     1
 -0.0550743212     1     9     6     2
 0.0000000028     1     9     6     3
 -0.0007640105     1     9     6     4
 0.0000000012     1     9     6     7
 0.0005509013     1     9     6    11
 0.0009889431     1     9     7     5
 0.0000000008     1     9     7     6
 -0.0000000001     1     9     7     8
 0.0000000006     1     9     7    12
 -0.0002092048     1     9     7    13
 -0.0000001042     1     9     8     1
 0.1043402814     1     9     8     2
 -0.0000000051     1     9     8     3
 0.0059828258     1     9     8     4
 -0.0000000016     1     9     8     7
 0.0000000006     1     9     8    10
 -0.0024522968     1     9     8    11
 -0.4411142340     1     9     9     1
 0.0000000009     1     9     9     2
 -0.0080263173     1     9     9     3
 0.0000000040     1     9     9     4
 0.0020732627     1     9     9     7
 0.0018021644     1     9     9    10
 -0.0000000013     1     9     9    11
 0.0000995372     1     9    10     5
 0.0000000001     1     9    10     6
 -0.0000000002     1     9    10    12
 -0.0005185339     1     9    10    13
 -0.0000665576     1     9    11     6
 0.0002075504     1     9    11     8
 -0.0002636953     1     9    11    12
 -0.0000000003     1     9    11    13
 0.0000000019     1     9    12     1
 -0.0019224332     1     9    12     2
 0.0000000005     1     9    12     3
 -0.0006437461     1     9    12     4
 0.0000000001     1     9    12     7
 -0.0000000003     1     9    12    10
 0.0001199955     1     9    12    11
 0.0011188390     1     9    13     1
 -0.0000000005     1     9    13     2
 0.0002273154     1     9    13     3
 -0.0000000002     1     9    13     4
 -0.0002511936     1     9    13     7
 -0.0006093407     1     9    13    10
 -0.0000000001     1     9    13    11
 0.0000000012     1    10     2     1
 -0.0024132787     1    10     2     2
 -0.0000648068     1    10     2     4
 0.0000206929     1    10     2    11
 0.0344299122     1    10     3     1
 -0.0000000002     1    10     3     2
 -0.0026467315     1    10     3     3
 -0.0000000003     1    10     3     4
 -0.0023203440     1    10     3     7
 -0.0000000411     1    10     4     1
 0.0407333926     1    10     4     2
 -0.0000000012     1    10     4     3
 -0.0001415757     1    10     4     4
 -0.0000000007     1    10     4     7
 0.0000658105     1    10     4    11
 -0.0020401875     1    10     5     5
 -0.0000000003     1    10     5     6
 -0.0005336440     1    10     5     9
 -0.0000000004     1    10     5    12
 0.0008439298     1    10     5    13
 -0.0000000003     1    10     6     5
 -0.0020433473     1    10     6     6
 0.0007187745     1    10     6     8
 -0.0008165490     1    10     6    12
 0.0000000001     1    10     6    13
 -0.0466702276     1    10     7     1
 0.0000000001     1    10     7     2
 -0.0047455123     1    10     7     3
 0.0000000007     1    10     7     4
 -0.0041854152     1    10     7     7
 -0.0000000002     1    10     7    11
 -0.0000000002     1    10     8     5
 0.0007063995     1    10     8     6
 -0.0028977325     1    10     8     8
 -0.0000000006     1    10     8     9
 0.0001476679     1    10     8    12
 0.0000000002     1    10     8    13
 -0.0004718675     1    10     9     5
 0.0000000001     1    10     9     6
 -0.0000000005     1    10     9     8
 -0.0018021644     1    10     9     9
 0.0000000001     1    10     9    12
 0.0000926844     1    10     9    13
 -0.2192318576     1    10    10     1
 0.0000000005     1    10    10     2
 -0.0008470575     1    10    10     3
 0.0000000003     1    10    10     4
 -0.0003936807     1    10    10     7
 -0.0000000002     1    10    10    11
 0.0000000380     1    10    11     1
 -0.0381689446     1    10    11     2
 0.0000000006     1    10    11     3
 0.0004852606     1    10    11     4
 0.0000000010     1    10    11     7
 -0.0001112869     1    10    11    11
 -0.0000000011     1    10    12     5
 -0.0019675401     1    10    12     6
 0.0008118661     1    10    12     8
 0.0000000003     1    10    12     9
 -0.0007922836     1    10    12    12
 0.0000000002     1    10    12    13
 0.0019899937     1    10    13     5
 0.0000000002     1    10    13     6
 0.0000000007     1    10    13     8
 0.0006093407     1    10    13     9
 0.0000000002     1    10    13    12
 -0.0008151427     1    10    13    13
 0.0014763179     1    11     2     1
 0.0000000007     1    11     2     2
 -0.0000302154     1    11     2     3
 -0.0001004502     1    11     2     7
 -0.0000206929     1    11     2    10
 -0.0000000343     1    11     3     1
 0.0346039214     1    11     3     2
 0.0000000007     1    11     3     3
 0.0002156447     1    11     3     4
 0.0000000006     1    11     3     7
 0.0591715934     1    11     4     1
 0.0000000003     1    11     4     2
 0.0012164338     1    11     4     3
 0.0004427516     1    11     4     7
 -0.0000658105     1    11     4    10
 0.0000000013     1    11     5     5
 0.0011433480     1    11     5     6
 0.0009184851     1    11     5     8
 0.0000000004     1    11     5     9
 0.0006342015     1    11     5    12
 -0.0000000004     1    11     5    13
 0.0011357653     1    11     6     5
 0.0000000011     1    11     6     6
 -0.0000000005     1    11     6     8
 -0.0005509013     1    11     6     9
 0.0000000006     1    11     6    12
 -0.0006731120     1    11     6    13
 0.0000000119     1    11     7     1
 -0.0123445219     1    11     7     2
 0.0000000016     1    11     7     3
 -0.0001969755     1    11     7     4
 0.0000000020     1    11     7     7
 0.0000000002     1    11     7    10
 0.0009795125     1    11     8     5
 -0.0000000004     1    11     8     6
 0.0000000019     1    11     8     8
 0.0024522968     1    11     8     9
 -0.0000000001     1    11     8    12
 -0.0004253301     1    11     8    13
 0.0000000003     1    11     9     5
 -0.0006171272     1    11     9     6
 0.0024876783     1    11     9     8
 0.0000000013     1    11     9     9
 -0.0003840296     1    11     9    12
 -0.0000000002     1    11     9    13
 0.0000000380     1    11    10     1
 -0.0381876969     1    11    10     2
 0.0000000006     1    11    10     3
 0.0004167180     1    11    10     4
 0.0000000011     1    11    10     7
 0.0000000002     1    11    10    10
 -0.2135552665     1    11    11     1
 -0.0000000005     1    11    11     2
 -0.0005934999     1    11    11     3
 0.0000000001     1    11    11     4
 -0.0004657778     1    11    11     7
 0.0001112869     1    11    11    10
 0.0015751092     1    11    12     5
 0.0000000010     1    11    12     6
 0.0000000001     1    11    12     8
 -0.0001199955     1    11    12     9
 0.0000000006     1    11    12    12
 -0.0005611088     1    11    12    13
 -0.0000000006     1    11    13     5
 -0.0016068411     1    11    13     6
 -0.0000502870     1    11    13     8
 0.0000000001     1    11    13     9
 -0.0005546004     1    11    13    12
 0.0000000002     1    11    13    13
 0.0000115151     1    12     2     5
 0.0000880234     1    12     2     9
 -0.0000001766     1    12     2    13
 -0.0000000006     1    12     3     5
 -0.0009343050     1    12     3     6
 0.0002151460     1    12     3     8
 -0.0000000002     1    12     3     9
 0.0010318376     1    12     4     5
 0.0000000007     1    12     4     6
 0.0000000003     1    12     4     8
 -0.0009586696     1    12     4     9
 0.0000014134     1    12     4    13
 -0.0000000430     1    12     5     1
 0.0296022411     1    12     5     2
 -0.0000000027     1    12     5     3
 0.0030257020     1    12     5     4
 0.0000000004     1    12     5     7
 0.0000000004     1    12     5    10
 -0.0006342015     1    12     5    11