&FCI NORB= 11,NELEC= 10,MS2=0,
 ORBSYM=1,1,1,1,1,1,1,1,1,1,1
 ISYM=1,
&END
 0.9847207034     1     1     2     2
 -0.0679997018     1     1     2     4
 -0.1238091584     1     1     2     6
 -0.0333914801     1     1     2     9
 0.1066468213     1     1     2    10
 0.8717347794     1     1     3     3
 -0.1433608308     1     1     3     7
 -0.0729706258     1     1     3     8
 -0.0679997018     1     1     4     2
 0.9518679762     1     1     4     4
 -0.0639496775     1     1     4     6
 0.1601412063     1     1     4     9
 0.1559434619     1     1     4    10
 1.0003455410     1     1     5     5
 0.2832344790     1     1     5    11
 -0.1238091584     1     1     6     2
 -0.0639496775     1     1     6     4
 0.3152207300     1     1     6     6
 -0.0074402538     1     1     6     9
 -0.1150697572     1     1     6    10
 -0.1433608308     1     1     7     3
 0.2836093889     1     1     7     7
 0.0650436628     1     1     7     8
 -0.0729706258     1     1     8     3
 0.0650436628     1     1     8     7
 0.3887833976     1     1     8     8
 -0.0333914801     1     1     9     2
 0.1601412063     1     1     9     4
 -0.0074402538     1     1     9     6
 0.3820781612     1     1     9     9
 0.0348772352     1     1     9    10
 0.1066468213     1     1    10     2
 0.1559434619     1     1    10     4
 -0.1150697572     1     1    10     6
 0.0348772352     1     1    10     9
 0.4564746317     1     1    10    10
 0.2832344790     1     1    11     5
 0.5389689607     1     1    11    11
 -0.9847207034     1     2     2     1
 0.0069534210     1     2     2     4
 -0.0011951226     1     2     2     6
 0.0030825950     1     2     2     9
 0.0035184429     1     2     2    10
 0.0309628457     1     2     3     3
 -0.0107617349     1     2     3     7
 -0.0085709125     1     2     3     8
 0.0679997018     1     2     4     1
 0.0358439751     1     2     4     4
 -0.0062254275     1     2     4     6
 0.0115637740     1     2     4     9
 0.0148381751     1     2     4    10
 0.0409177701     1     2     5     5
 0.0238755797     1     2     5    11
 0.1238091584     1     2     6     1
 -0.0060125075     1     2     6     4
 0.0013968318     1     2     6     6
 -0.0021945418     1     2     6     9
 -0.0032965022     1     2     6    10
 -0.0079556277     1     2     7     3
 0.0034378337     1     2     7     7
 0.0026974204     1     2     7     8
 -0.0056578168     1     2     8     3
 0.0023753059     1     2     8     7
 0.0019875110     1     2     8     8
 0.0333914801     1     2     9     1
 0.0084787444     1     2     9     4
 -0.0014945102     1     2     9     6
 0.0040113397     1     2     9     9
 0.0047057760     1     2     9    10
 -0.1066468213     1     2    10     1
 0.0121925466     1     2    10     4
 -0.0027183054     1     2    10     6
 0.0053639074     1     2    10     9
 0.0064748766     1     2    10    10
 0.0175048444     1     2    11     5
 0.0137497904     1     2    11    11
 -0.0021269439     1     3     2     7
 -0.0024323317     1     3     2     8
 -0.8717347794     1     3     3     1
 -0.0309628457     1     3     3     2
 0.0106060042     1     3     3     4
 0.0041929729     1     3     3     6
 0.0028863895     1     3     3     9
 0.0006209920     1     3     3    10
 -0.0010096957     1     3     4     7
 -0.0040549452     1     3     4     8
 -0.0018655353     1     3     6     7
 0.0004305716     1     3     6     8
 0.1433608308     1     3     7     1
 0.0079556277     1     3     7     2
 -0.0028225686     1     3     7     4
 -0.0036368336     1     3     7     6
 -0.0012684982     1     3     7     9
 0.0019253424     1     3     7    10
 0.0729706258     1     3     8     1
 0.0056578168     1     3     8     2
 -0.0018059591     1     3     8     4
 -0.0017318795     1     3     8     6
 0.0010399566     1     3     8     9
 0.0040233147     1     3     8    10
 -0.0009111554     1     3     9     7
 0.0000306267     1     3     9     8
 0.0014271069     1     3    10     7
 0.0018255113     1     3    10     8
 0.0679997018     1     4     2     1
 -0.0069534210     1     4     2     2
 0.0002750282     1     4     2     6
 0.0023146650     1     4     2     9
 0.0016524641     1     4     2    10
 -0.0106060042     1     4     3     3
 0.0019762387     1     4     3     7
 -0.0021422876     1     4     3     8
 -0.9518679762     1     4     4     1
 -0.0358439751     1     4     4     2
 0.0081901254     1     4     4     6
 0.0007208044     1     4     4     9
 -0.0101841452     1     4     4    10
 -0.0137616750     1     4     5     5
 -0.0076614329     1     4     5    11
 0.0639496775     1     4     6     1
 0.0060125075     1     4     6     2
 -0.0032802999     1     4     6     6
 0.0014287993     1     4     6     9
 0.0035724804     1     4     6    10
 0.0028225686     1     4     7     3
 -0.0021029503     1     4     7     7
 -0.0009532685     1     4     7     8
 0.0018059591     1     4     8     3
 -0.0021641802     1     4     8     7
 -0.0012689472     1     4     8     8
 -0.1601412063     1     4     9     1
 -0.0084787444     1     4     9     2
 0.0042247967     1     4     9     6
 0.0009968425     1     4     9     9
 -0.0019040964     1     4     9    10
 -0.1559434619     1     4    10     1
 -0.0121925466     1     4    10     2
 0.0052079155     1     4    10     6
 0.0017476719     1     4    10     9
 -0.0068225192     1     4    10    10
 -0.0062105526     1     4    11     5
 -0.0045465687     1     4    11    11
 0.0048578123     1     5     2    11
 -0.0010948251     1     5     4    11
 -1.0003455410     1     5     5     1
 -0.0409177701     1     5     5     2
 0.0137616750     1     5     5     4
 0.0078418022     1     5     5     6
 0.0075091915     1     5     5     9
 -0.0081165733     1     5     5    10
 0.0021670145     1     5     6    11
 -0.0014074688     1     5     9    11
 0.0011698174     1     5    10    11
 -0.2832344790     1     5    11     1
 -0.0175048444     1     5    11     2
 0.0062105526     1     5    11     4
 0.0069526742     1     5    11     6
 0.0029720274     1     5    11     9
 -0.0039811804     1     5    11    10
 0.1238091584     1     6     2     1
 0.0011951226     1     6     2     2
 -0.0002750282     1     6     2     4
 -0.0006968280     1     6     2     9
 -0.0006096060     1     6     2    10
 -0.0041929729     1     6     3     3
 0.0017864508     1     6     3     7
 0.0021587923     1     6     3     8
 0.0639496775     1     6     4     1
 0.0062254275     1     6     4     2
 -0.0081901254     1     6     4     4
 -0.0027756685     1     6     4     9
 -0.0016746932     1     6     4    10
 -0.0078418022     1     6     5     5
 -0.0046800082     1     6     5    11
 -0.3152207300     1     6     6     1
 -0.0013968318     1     6     6     2
 0.0032802999     1     6     6     4
 0.0008513189     1     6     6     9
 0.0008115146     1     6     6    10
 0.0036368336     1     6     7     3
 -0.0011664487     1     6     7     7
 -0.0009993756     1     6     7     8
 0.0017318795     1     6     8     3
 -0.0003737133     1     6     8     7
 -0.0003329721     1     6     8     8
 0.0074402538     1     6     9     1
 0.0014945102     1     6     9     2
 -0.0042247967     1     6     9     4
 -0.0017659356     1     6     9     9
 -0.0016900481     1     6     9    10
 0.1150697572     1     6    10     1
 0.0027183054     1     6    10     2
 -0.0052079155     1     6    10     4
 -0.0022903539     1     6    10     9
 -0.0010714760     1     6    10    10
 -0.0069526742     1     6    11     5
 -0.0045579629     1     6    11    11
 0.0021269439     1     7     2     3
 0.0003115934     1     7     2     8
 0.1433608308     1     7     3     1
 0.0107617349     1     7     3     2
 -0.0019762387     1     7     3     4
 -0.0017864508     1     7     3     6
 -0.0004297668     1     7     3     9
 0.0004627190     1     7     3    10
 0.0010096957     1     7     4     3
 0.0012110880     1     7     4     8
 0.0018655353     1     7     6     3
 -0.0006265306     1     7     6     8
 -0.2836093889     1     7     7     1
 -0.0034378337     1     7     7     2
 0.0021029503     1     7     7     4
 0.0011664487     1     7     7     6
 0.0008016555     1     7     7     9
 -0.0003374093     1     7     7    10
 -0.0650436628     1     7     8     1
 -0.0023753059     1     7     8     2
 0.0021641802     1     7     8     4
 0.0003737133     1     7     8     6
 0.0001369328     1     7     8     9
 -0.0008168857     1     7     8    10
 0.0009111554     1     7     9     3
 -0.0002555243     1     7     9     8
 -0.0014271069     1     7    10     3
 -0.0002802017     1     7    10     8
 0.0024323317     1     8     2     3
 -0.0003115934     1     8     2     7
 0.0729706258     1     8     3     1
 0.0085709125     1     8     3     2
 0.0021422876     1     8     3     4
 -0.0021587923     1     8     3     6
 0.0008960052     1     8     3     9
 0.0021562954     1     8     3    10
 0.0040549452     1     8     4     3
 -0.0012110880     1     8     4     7
 -0.0004305716     1     8     6     3
 0.0006265306     1     8     6     7
 -0.0650436628     1     8     7     1
 -0.0026974204     1     8     7     2
 0.0009532685     1     8     7     4
 0.0009993756     1     8     7     6
 0.0003901832     1     8     7     9
 -0.0005368293     1     8     7    10
 -0.3887833976     1     8     8     1
 -0.0019875110     1     8     8     2
 0.0012689472     1     8     8     4
 0.0003329721     1     8     8     6
 -0.0000267723     1     8     8     9
 -0.0007726021     1     8     8    10
 -0.0000306267     1     8     9     3
 0.0002555243     1     8     9     7
 -0.0018255113     1     8    10     3
 0.0002802017     1     8    10     7
 0.0333914801     1     9     2     1
 -0.0030825950     1     9     2     2
 -0.0023146650     1     9     2     4
 0.0006968280     1     9     2     6
 -0.0006836433     1     9     2    10
 -0.0028863895     1     9     3     3
 0.0004297668     1     9     3     7
 -0.0008960052     1     9     3     8
 -0.1601412063     1     9     4     1
 -0.0115637740     1     9     4     2
 -0.0007208044     1     9     4     4
 0.0027756685     1     9     4     6
 -0.0036179731     1     9     4    10
 -0.0075091915     1     9     5     5
 -0.0043579732     1     9     5    11
 0.0074402538     1     9     6     1
 0.0021945418     1     9     6     2
 -0.0014287993     1     9     6     4
 -0.0008513189     1     9     6     6
 0.0006018804     1     9     6    10
 0.0012684982     1     9     7     3
 -0.0008016555     1     9     7     7
 -0.0003901832     1     9     7     8
 -0.0010399566     1     9     8     3
 -0.0001369328     1     9     8     7
 0.0000267723     1     9     8     8
 -0.3820781612     1     9     9     1
 -0.0040113397     1     9     9     2
 -0.0009968425     1     9     9     4
 0.0017659356     1     9     9     6
 -0.0012829760     1     9     9    10
 -0.0348772352     1     9    10     1
 -0.0053639074     1     9    10     2
 -0.0017476719     1     9    10     4
 0.0022903539     1     9    10     6
 -0.0033013407     1     9    10    10
 -0.0029720274     1     9    11     5
 -0.0019882334     1     9    11    11
 -0.1066468213     1    10     2     1
 -0.0035184429     1    10     2     2
 -0.0016524641     1    10     2     4
 0.0006096060     1    10     2     6
 0.0006836433     1    10     2     9
 -0.0006209920     1    10     3     3
 -0.0004627190     1    10     3     7
 -0.0021562954     1    10     3     8
 -0.1559434619     1    10     4     1
 -0.0148381751     1    10     4     2
 0.0101841452     1    10     4     4
 0.0016746932     1    10     4     6
 0.0036179731     1    10     4     9
 0.0081165733     1    10     5     5
 0.0049597197     1    10     5    11
 0.1150697572     1    10     6     1
 0.0032965022     1    10     6     2
 -0.0035724804     1    10     6     4
 -0.0008115146     1    10     6     6
 -0.0006018804     1    10     6     9
 -0.0019253424     1    10     7     3
 0.0003374093     1    10     7     7
 0.0005368293     1    10     7     8
 -0.0040233147     1    10     8     3
 0.0008168857     1    10     8     7
 0.0007726021     1    10     8     8
 -0.0348772352     1    10     9     1
 -0.0047057760     1    10     9     2
 0.0019040964     1    10     9     4
 0.0016900481     1    10     9     6
 0.0012829760     1    10     9     9
 -0.4564746317     1    10    10     1
 -0.0064748766     1    10    10     2
 0.0068225192     1    10    10     4
 0.0010714760     1    10    10     6
 0.0033013407     1    10    10     9
 0.0039811804     1    10    11     5
 0.0027167679     1    10    11    11
 -0.0048578123     1    11     2     5
 0.0010948251     1    11     4     5
 -0.2832344790     1    11     5     1
 -0.0238755797     1    11     5     2
 0.0076614329     1    11     5     4
 0.0046800082     1    11     5     6
 0.0043579732     1    11     5     9
 -0.0049597197     1    11     5    10
 -0.0021670145     1    11     6     5
 0.0014074688     1    11     9     5
 -0.0011698174     1    11    10     5
 -0.5389689607     1    11    11     1
 -0.0137497904     1    11    11     2
 0.0045465687     1    11    11     4
 0.0045579629     1    11    11     6
 0.0019882334     1    11    11     9
 -0.0027167679     1    11    11    10
 -0.9847207034     2     1     1     2
 0.0679997018     2     1     1     4
 0.1238091584     2     1     1     6
 0.0333914801     2     1     1     9
 -0.1066468213     2     1     1    10
 0.0309628457     2     1     3     3
 -0.0079556277     2     1     3     7
 -0.0056578168     2     1     3     8
 0.0069534210     2     1     4     2
 0.0358439751     2     1     4     4
 -0.0060125075     2     1     4     6
 0.0084787444     2     1     4     9
 0.0121925466     2     1     4    10
 0.0409177701     2     1     5     5
 0.0175048444     2     1     5    11
 -0.0011951226     2     1     6     2
 -0.0062254275     2     1     6     4
 0.0013968318     2     1     6     6
 -0.0014945102     2     1     6     9
 -0.0027183054     2     1     6    10
 -0.0107617349     2     1     7     3
 0.0034378337     2     1     7     7
 0.0023753059     2     1     7     8
 -0.0085709125     2     1     8     3
 0.0026974204     2     1     8     7
 0.0019875110     2     1     8     8
 0.0030825950     2     1     9     2
 0.0115637740     2     1     9     4
 -0.0021945418     2     1     9     6
 0.0040113397     2     1     9     9
 0.0053639074     2     1     9    10
 0.0035184429     2     1    10     2
 0.0148381751     2     1    10     4
 -0.0032965022     2     1    10     6
 0.0047057760     2     1    10     9
 0.0064748766     2     1    10    10
 0.0238755797     2     1    11     5
 0.0137497904     2     1    11    11
 0.9847207034     2     2     1     1
 -0.0069534210     2     2     1     4
 0.0011951226     2     2     1     6
 -0.0030825950     2     2     1     9
 -0.0035184429     2     2     1    10
 0.5285706510     2     2     3     3
 -0.0596322117     2     2     3     7
 -0.0143520607     2     2     3     8
 -0.0069534210     2     2     4     1
 0.5510683034     2     2     4     4
 -0.0279330752     2     2     4     6
 0.0654974044     2     2     4     9
 0.0595717623     2     2     4    10
 0.5787938317     2     2     5     5
 0.1114548767     2     2     5    11
 0.0011951226     2     2     6     1
 -0.0279330752     2     2     6     4
 0.2796489397     2     2     6     6
 -0.0081658356     2     2     6     9
 -0.0681632868     2     2     6    10
 -0.0596322117     2     2     7     3
 0.2555821872     2     2     7     7
 0.0429103660     2     2     7     8
 -0.0143520607     2     2     8     3
 0.0429103660     2     2     8     7
 0.3578385337     2     2     8     8
 -0.0030825950     2     2     9     1
 0.0654974044     2     2     9     4
 -0.0081658356     2     2     9     6
 0.3320301899     2     2     9     9
 -0.0013107225     2     2     9    10
 -0.0035184429     2     2    10     1
 0.0595717623     2     2    10     4
 -0.0681632868     2     2    10     6
 -0.0013107225     2     2    10     9
 0.3777696459     2     2    10    10
 0.1114548767     2     2    11     5
 0.4083761520     2     2    11    11
 0.0021269439     2     3     1     7
 0.0024323317     2     3     1     8
 -0.0309628457     2     3     3     1
 -0.5285706510     2     3     3     2
 0.0021739056     2     3     3     4
 0.0574712413     2     3     3     6
 0.0210099481     2     3     3     9
 -0.0641665898     2     3     3    10
 0.0080657906     2     3     4     7
 0.0276205849     2     3     4     8
 0.0298112202     2     3     6     7
 -0.0004407586     2     3     6     8
 0.0107617349     2     3     7     1
 0.0596322117     2     3     7     2
 0.0009380340     2     3     7     4
 0.0187947868     2     3     7     6
 0.0013582334     2     3     7     9
 -0.0039094556     2     3     7    10
 0.0085709125     2     3     8     1
 0.0143520607     2     3     8     2
 0.0053418116     2     3     8     4
 -0.0022439885     2     3     8     6
 -0.0151315344     2     3     8     9
 -0.0277075346     2     3     8    10
 0.0055529092     2     3     9     7
 -0.0119397529     2     3     9     8
 -0.0158506517     2     3    10     7
 -0.0267651617     2     3    10     8
 -0.0679997018     2     4     1     1
 0.0069534210     2     4     1     2
 -0.0002750282     2     4     1     6
 -0.0023146650     2     4     1     9
 -0.0016524641     2     4     1    10
 -0.0021739056     2     4     3     3
 0.0072754554     2     4     3     7
 0.0225120380     2     4     3     8
 -0.0358439751     2     4     4     1
 -0.5510683034     2     4     4     2
 0.0566934703     2     4     4     6
 0.0058525693     2     4     4     9
 -0.0419209910     2     4     4    10
 -0.0044027484     2     4     5     5
 -0.0049804796     2     4     5    11
 0.0062254275     2     4     6     1
 0.0279330752     2     4     6     2
 0.0092720920     2     4     6     6
 -0.0197348824     2     4     6     9
 -0.0076071074     2     4     6    10
 -0.0009380340     2     4     7     3
 0.0112498527     2     4     7     7
 0.0055115548     2     4     7     8
 -0.0053418116     2     4     8     3
 0.0096151721     2     4     8     7
 -0.0009328090     2     4     8     8
 -0.0115637740     2     4     9     1
 -0.0654974044     2     4     9     2
 -0.0071364054     2     4     9     6
 -0.0100196282     2     4     9     9
 -0.0239178340     2     4     9    10
 -0.0148381751     2     4    10     1
 -0.0595717623     2     4    10     2
 -0.0007346429     2     4    10     6
 -0.0115059779     2     4    10     9
 0.0091939553     2     4    10    10
 -0.0032070126     2     4    11     5
 -0.0092593346     2     4    11    11
 -0.0048578123     2     5     1    11
 -0.0016595341     2     5     4    11
 -0.0409177701     2     5     5     1
 -0.5787938317     2     5     5     2
 0.0044027484     2     5     5     4
 0.0551268559     2     5     5     6
 -0.0003494006     2     5     5     9
 -0.0318998611     2     5     5    10
 -0.0232670710     2     5     6    11
 0.0073779811     2     5     9    11
 -0.0027168238     2     5    10    11
 -0.0238755797     2     5    11     1
 -0.1114548767     2     5    11     2
 0.0032070126     2     5    11     4
 -0.0035901773     2     5    11     6
 0.0098174645     2     5    11     9
 -0.0181713474     2     5    11    10
 -0.1238091584     2     6     1     1
 -0.0011951226     2     6     1     2
 0.0002750282     2     6     1     4
 0.0006968280     2     6     1     9
 0.0006096060     2     6     1    10
 -0.0574712413     2     6     3     3
 0.0106207661     2     6     3     7
 0.0014215484     2     6     3     8
 0.0060125075     2     6     4     1
 0.0279330752     2     6     4     2
 -0.0566934703     2     6     4     4
 -0.0121943399     2     6     4     9
 -0.0065762810     2     6     4    10
 -0.0551268559     2     6     5     5
 -0.0188551799     2     6     5    11
 -0.0013968318     2     6     6     1
 -0.2796489397     2     6     6     2
 -0.0092720920     2     6     6     4
 0.0017721934     2     6     6     9
 0.0051001857     2     6     6    10
 -0.0187947868     2     6     7     3
 -0.0055833469     2     6     7     7
 -0.0080406840     2     6     7     8
 0.0022439885     2     6     8     3
 -0.0045565194     2     6     8     7
 -0.0180887820     2     6     8     8
 0.0021945418     2     6     9     1
 0.0081658356     2     6     9     2
 0.0071364054     2     6     9     4
 -0.0138526578     2     6     9     9
 0.0009986909     2     6     9    10
 0.0032965022     2     6    10     1
 0.0681632868     2     6    10     2
 0.0007346429     2     6    10     4
 -0.0003292764     2     6    10     9
 -0.0146605525     2     6    10    10
 0.0035901773     2     6    11     5
 -0.0233186233     2     6    11    11
 -0.0021269439     2     7     1     3
 -0.0003115934     2     7     1     8
 0.0079556277     2     7     3     1
 0.0596322117     2     7     3     2
 -0.0072754554     2     7     3     4
 -0.0106207661     2     7     3     6
 -0.0039530610     2     7     3     9
 0.0112700444     2     7     3    10
 -0.0080657906     2     7     4     3
 -0.0037779332     2     7     4     8
 -0.0298112202     2     7     6     3
 -0.0034878092     2     7     6     8
 -0.0034378337     2     7     7     1
 -0.2555821872     2     7     7     2
 -0.0112498527     2     7     7     4
 0.0055833469     2     7     7     6
 -0.0005555032     2     7     7     9
 0.0007636843     2     7     7    10
 -0.0026974204     2     7     8     1
 -0.0429103660     2     7     8     2
 -0.0096151721     2     7     8     4
 0.0045565194     2     7     8     6
 0.0015897206     2     7     8     9
 -0.0014621740     2     7     8    10
 -0.0055529092     2     7     9     3
 0.0018105756     2     7     9     8
 0.0158506517     2     7    10     3
 0.0037573040     2     7    10     8
 -0.0024323317     2     8     1     3
 0.0003115934     2     8     1     7
 0.0056578168     2     8     3     1
 0.0143520607     2     8     3     2
 -0.0225120380     2     8     3     4
 -0.0014215484     2     8     3     6
 -0.0024997239     2     8     3     9
 -0.0012867554     2     8     3    10
 -0.0276205849     2     8     4     3
 0.0037779332     2     8     4     7
 0.0004407586     2     8     6     3
 0.0034878092     2     8     6     7
 -0.0023753059     2     8     7     1
 -0.0429103660     2     8     7     2
 -0.0055115548     2     8     7     4
 0.0080406840     2     8     7     6
 -0.0003185312     2     8     7     9
 -0.0052454912     2     8     7    10
 -0.0019875110     2     8     8     1
 -0.3578385337     2     8     8     2
 0.0009328090     2     8     8     4
 0.0180887820     2     8     8     6
 0.0016784123     2     8     8     9
 -0.0091421853     2     8     8    10
 0.0119397529     2     8     9     3
 -0.0018105756     2     8     9     7
 0.0267651617     2     8    10     3
 -0.0037573040     2     8    10     7
 -0.0333914801     2     9     1     1
 0.0030825950     2     9     1     2
 0.0023146650     2     9     1     4
 -0.0006968280     2     9     1     6
 0.0006836433     2     9     1    10
 -0.0210099481     2     9     3     3
 0.0039530610     2     9     3     7
 0.0024997239     2     9     3     8
 -0.0084787444     2     9     4     1
 -0.0654974044     2     9     4     2
 -0.0058525693     2     9     4     4
 0.0121943399     2     9     4     6
 -0.0118199363     2     9     4    10
 0.0003494006     2     9     5     5
 -0.0026763902     2     9     5    11
 0.0014945102     2     9     6     1
 0.0081658356     2     9     6     2
 0.0197348824     2     9     6     4
 -0.0017721934     2     9     6     6
 0.0013315533     2     9     6    10
 -0.0013582334     2     9     7     3
 0.0005555032     2     9     7     7
 0.0003185312     2     9     7     8
 0.0151315344     2     9     8     3
 -0.0015897206     2     9     8     7
 -0.0016784123     2     9     8     8
 -0.0040113397     2     9     9     1
 -0.3320301899     2     9     9     2
 0.0100196282     2     9     9     4
 0.0138526578     2     9     9     6
 -0.0078551533     2     9     9    10
 -0.0047057760     2     9    10     1
 0.0013107225     2     9    10     2
 0.0115059779     2     9    10     4
 0.0003292764     2     9    10     6
 -0.0018787356     2     9    10    10
 -0.0098174645     2     9    11     5
 -0.0047669657     2     9    11    11
 0.1066468213     2    10     1     1
 0.0035184429     2    10     1     2
 0.0016524641     2    10     1     4
 -0.0006096060     2    10     1     6
 -0.0006836433     2    10     1     9
 0.0641665898     2    10     3     3
 -0.0112700444     2    10     3     7
 0.0012867554     2    10     3     8
 -0.0121925466     2    10     4     1
 -0.0595717623     2    10     4     2
 0.0419209910     2    10     4     4
 0.0065762810     2    10     4     6
 0.0118199363     2    10     4     9
 0.0318998611     2    10     5     5
 0.0146469915     2    10     5    11
 0.0027183054     2    10     6     1
 0.0681632868     2    10     6     2
 0.0076071074     2    10     6     4
 -0.0051001857     2    10     6     6
 -0.0013315533     2    10     6     9
 0.0039094556     2    10     7     3
 -0.0007636843     2    10     7     7
 0.0052454912     2    10     7     8
 0.0277075346     2    10     8     3
 0.0014621740     2    10     8     7
 0.0091421853     2    10     8     8
 -0.0053639074     2    10     9     1
 0.0013107225     2    10     9     2
 0.0239178340     2    10     9     4
 -0.0009986909     2    10     9     6
 0.0078551533     2    10     9     9
 -0.0064748766     2    10    10     1
 -0.3777696459     2    10    10     2
 -0.0091939553     2    10    10     4
 0.0146605525     2    10    10     6
 0.0018787356     2    10    10     9
 0.0181713474     2    10    11     5
 0.0168973298     2    10    11    11
 0.0048578123     2    11     1     5
 0.0016595341     2    11     4     5
 -0.0175048444     2    11     5     1
 -0.1114548767     2    11     5     2
 0.0049804796     2    11     5     4
 0.0188551799     2    11     5     6
 0.0026763902     2    11     5     9
 -0.0146469915     2    11     5    10
 0.0232670710     2    11     6     5
 -0.0073779811     2    11     9     5
 0.0027168238     2    11    10     5
 -0.0137497904     2    11    11     1
 -0.4083761520     2    11    11     2
 0.0092593346     2    11    11     4
 0.0233186233     2    11    11     6
 0.0047669657     2    11    11     9
 -0.0168973298     2    11    11    10
 -0.8717347794     3     1     1     3
 0.1433608308     3     1     1     7
 0.0729706258     3     1     1     8
 -0.0309628457     3     1     2     3
 0.0079556277     3     1     2     7
 0.0056578168     3     1     2     8
 0.0106060042     3     1     4     3
 -0.0028225686     3     1     4     7
 -0.0018059591     3     1     4     8
 0.0041929729     3     1     6     3
 -0.0036368336     3     1     6     7
 -0.0017318795     3     1     6     8
 -0.0021269439     3     1     7     2
 -0.0010096957     3     1     7     4
 -0.0018655353     3     1     7     6
 -0.0009111554     3     1     7     9
 0.0014271069     3     1     7    10
 -0.0024323317     3     1     8     2
 -0.0040549452     3     1     8     4
 0.0004305716     3     1     8     6
 0.0000306267     3     1     8     9
 0.0018255113     3     1     8    10
 0.0028863895     3     1     9     3
 -0.0012684982     3     1     9     7
 0.0010399566     3     1     9     8
 0.0006209920     3     1    10     3
 0.0019253424     3     1    10     7
 0.0040233147     3     1    10     8
 -0.0309628457     3     2     1     3
 0.0107617349     3     2     1     7
 0.0085709125     3     2     1     8
 -0.5285706510     3     2     2     3
 0.0596322117     3     2     2     7
 0.0143520607     3     2     2     8
 0.0021739056     3     2     4     3
 0.0009380340     3     2     4     7
 0.0053418116     3     2     4     8
 0.0574712413     3     2     6     3
 0.0187947868     3     2     6     7
 -0.0022439885     3     2     6     8
 0.0021269439     3     2     7     1
 0.0080657906     3     2     7     4
 0.0298112202     3     2     7     6
 0.0055529092     3     2     7     9
 -0.0158506517     3     2     7    10
 0.0024323317     3     2     8     1
 0.0276205849     3     2     8     4
 -0.0004407586     3     2     8     6
 -0.0119397529     3     2     8     9
 -0.0267651617     3     2     8    10
 0.0210099481     3     2     9     3
 0.0013582334     3     2     9     7
 -0.0151315344     3     2     9     8
 -0.0641665898     3     2    10     3
 -0.0039094556     3     2    10     7
 -0.0277075346     3     2    10     8
 0.8717347794     3     3     1     1
 0.0309628457     3     3     1     2
 -0.0106060042     3     3     1     4
 -0.0041929729     3     3     1     6
 -0.0028863895     3     3     1     9
 -0.0006209920     3     3     1    10
 0.0309628457     3     3     2     1
 0.5285706510     3     3     2     2
 -0.0021739056     3     3     2     4
 -0.0574712413     3     3     2     6
 -0.0210099481     3     3     2     9
 0.0641665898     3     3     2    10
 -0.0106060042     3     3     4     1
 -0.0021739056     3     3     4     2
 0.5617736938     3     3     4     4
 -0.0296311866     3     3     4     6
 0.0653831762     3     3     4     9
 0.0640407824     3     3     4    10
 0.5855803288     3     3     5     5
 0.1125113747     3     3     5    11
 -0.0041929729     3     3     6     1
 -0.0574712413     3     3     6     2
 -0.0296311866     3     3     6     4
 0.2837166500     3     3     6     6
 -0.0072585119     3     3     6     9
 -0.0711663627     3     3     6    10
 0.2446972751     3     3     7     7
 0.0330812206     3     3     7     8
 0.0330812206     3     3     8     7