&FCI NORB= 16,NELEC= 10,MS2=0,
 ORBSYM=1,1,1,1,1,1,1,1,1,1,1,1,1,1,1,1
 ISYM=1,
&END
 0.9844549222     1     1     2     2
 0.0679982459     1     1     2     4
 0.1310058429     1     1     2     6
 0.0363036995     1     1     2     9
 -0.1122320673     1     1     2    10
 -0.0755694054     1     1     2    12
 -0.1768755534     1     1     2    16
 0.8692729734     1     1     3     3
 -0.1529850207     1     1     3     7
 -0.0810670724     1     1     3     8
 -0.2392430439     1     1     3    13
 0.0679982459     1     1     4     2
 0.9517802222     1     1     4     4
 -0.0698715172     1     1     4     6
 0.1716529501     1     1     4     9
 0.1670945752     1     1     4    10
 0.0532835596     1     1     4    12
 -0.1274519190     1     1     4    16
 0.9997031399     1     1     5     5
 0.3032501743     1     1     5    11
 -0.0435694284     1     1     5    15
 0.1310058429     1     1     6     2
 -0.0698715172     1     1     6     4
 0.3154110570     1     1     6     6
 -0.0074084968     1     1     6     9
 -0.1152572027     1     1     6    10
 -0.0619574911     1     1     6    12
 -0.0836423842     1     1     6    16
 -0.1529850207     1     1     7     3
 0.2837786990     1     1     7     7
 0.0652054643     1     1     7     8
 0.1474644363     1     1     7    13
 -0.0810670724     1     1     8     3
 0.0652054643     1     1     8     7
 0.3894540747     1     1     8     8
 0.0794073778     1     1     8    13
 0.0363036995     1     1     9     2
 0.1716529501     1     1     9     4
 -0.0074084968     1     1     9     6
 0.3824392737     1     1     9     9
 0.0347003861     1     1     9    10
 0.0247415706     1     1     9    12
 -0.0696694924     1     1     9    16
 -0.1122320673     1     1    10     2
 0.1670945752     1     1    10     4
 -0.1152572027     1     1    10     6
 0.0347003861     1     1    10     9
 0.4568964732     1     1    10    10
 0.0436847753     1     1    10    12
 -0.0056737547     1     1    10    16
 0.3032501743     1     1    11     5
 0.5393859903     1     1    11    11
 -0.0394901265     1     1    11    15
 -0.0755694054     1     1    12     2
 0.0532835596     1     1    12     4
 -0.0619574911     1     1    12     6
 0.0247415706     1     1    12     9
 0.0436847753     1     1    12    10
 0.3783753565     1     1    12    12
 0.0122565594     1     1    12    16
 -0.2392430439     1     1    13     3
 0.1474644363     1     1    13     7
 0.0794073778     1     1    13     8
 0.4774226915     1     1    13    13
 0.3621606676     1     1    14    14
 -0.0435694284     1     1    15     5
 -0.0394901265     1     1    15    11
 0.3656095662     1     1    15    15
 -0.1768755534     1     1    16     2
 -0.1274519190     1     1    16     4
 -0.0836423842     1     1    16     6
 -0.0696694924     1     1    16     9
 -0.0056737547     1     1    16    10
 0.0122565594     1     1    16    12
 0.5078950194     1     1    16    16
 -0.9844549222     1     2     2     1
 0.0070281346     1     2     2     4
 -0.0014035057     1     2     2     6
 0.0029451671     1     2     2     9
 0.0036791382     1     2     2    10
 0.0016144799     1     2     2    12
 -0.0017512766     1     2     2    16
 -0.0310065390     1     2     3     3
 0.0110185436     1     2     3     7
 0.0088117817     1     2     3     8
 0.0213621742     1     2     3    13
 -0.0679982459     1     2     4     1
 -0.0360562937     1     2     4     4
 0.0063907441     1     2     4     6
 -0.0119633909     1     2     4     9
 -0.0151511563     1     2     4    10
 -0.0065557521     1     2     4    12
 0.0081831221     1     2     4    16
 -0.0410546698     1     2     5     5
 -0.0244945487     1     2     5    11
 0.0045616905     1     2     5    15
 -0.1310058429     1     2     6     1
 0.0061773424     1     2     6     4
 -0.0013283917     1     2     6     6
 0.0021782737     1     2     6     9
 0.0032162313     1     2     6    10
 0.0013890290     1     2     6    12
 -0.0012555347     1     2     6    16
 0.0082611739     1     2     7     3
 -0.0034220852     1     2     7     7
 -0.0026871578     1     2     7     8
 -0.0068920526     1     2     7    13
 0.0059539214     1     2     8     3
 -0.0023665109     1     2     8     7
 -0.0020202190     1     2     8     8
 -0.0043782617     1     2     8    13
 -0.0363036995     1     2     9     1
 -0.0089099856     1     2     9     4
 0.0015034959     1     2     9     6
 -0.0039849793     1     2     9     9
 -0.0046730712     1     2     9    10
 -0.0014819698     1     2     9    12
 0.0030394266     1     2     9    16
 0.1122320673     1     2    10     1
 -0.0125332451     1     2    10     4
 0.0026526667     1     2    10     6
 -0.0053044125     1     2    10     9
 -0.0063962808     1     2    10    10
 -0.0025573956     1     2    10    12
 0.0034444423     1     2    10    16
 -0.0182059955     1     2    11     5
 -0.0136139638     1     2    11    11
 0.0020664438     1     2    11    15
 0.0755694054     1     2    12     1
 -0.0050123877     1     2    12     4
 0.0010340182     1     2    12     6
 -0.0015777286     1     2    12     9
 -0.0023118719     1     2    12    10
 -0.0008743954     1     2    12    12
 0.0010321004     1     2    12    16
 0.0146070528     1     2    13     3
 -0.0062887738     1     2    13     7
 -0.0045420007     1     2    13     8
 -0.0121907268     1     2    13    13
 0.0002559262     1     2    14    14
 0.0028277555     1     2    15     5
 0.0016067584     1     2    15    11
 -0.0002089613     1     2    15    15
 0.1768755534     1     2    16     1
 0.0043756571     1     2    16     4
 -0.0004743667     1     2    16     6
 0.0022020252     1     2    16     9
 0.0020401324     1     2    16    10
 0.0005427526     1     2    16    12
 -0.0023569397     1     2    16    16
 0.0020674329     1     3     2     7
 0.0023889358     1     3     2     8
 0.0055629520     1     3     2    13
 -0.8692729734     1     3     3     1
 0.0310065390     1     3     3     2
 0.0105678495     1     3     3     4
 0.0041916406     1     3     3     6
 0.0028108701     1     3     3     9
 0.0005926633     1     3     3    10
 -0.0042644939     1     3     3    12
 -0.0114906670     1     3     3    16
 -0.0010245362     1     3     4     7
 -0.0040358623     1     3     4     8
 -0.0014172054     1     3     4    13
 -0.0033039323     1     3     5    14
 -0.0018378631     1     3     6     7
 0.0004215963     1     3     6     8
 -0.0016529808     1     3     6    13
 0.1529850207     1     3     7     1
 -0.0082611739     1     3     7     2
 -0.0027702803     1     3     7     4
 -0.0036721061     1     3     7     6
 -0.0012580096     1     3     7     9
 0.0019941789     1     3     7    10
 0.0011990739     1     3     7    12
 0.0038267520     1     3     7    16
 0.0810670724     1     3     8     1
 -0.0059539214     1     3     8     2
 -0.0018085269     1     3     8     4
 -0.0017837615     1     3     8     6
 0.0010363554     1     3     8     9
 0.0040802454     1     3     8    10
 0.0027159923     1     3     8    12
 0.0015901920     1     3     8    16
 -0.0009049619     1     3     9     7
 0.0000468153     1     3     9     8
 -0.0028524280     1     3     9    13
 0.0014281035     1     3    10     7
 0.0018373819     1     3    10     8
 0.0032645880     1     3    10    13
 0.0008703311     1     3    11    14
 -0.0006592364     1     3    12     7
 0.0005967896     1     3    12     8
 -0.0004775346     1     3    12    13
 0.2392430439     1     3    13     1
 -0.0146070528     1     3    13     2
 -0.0048857123     1     3    13     4
 -0.0052559953     1     3    13     6
 -0.0035562741     1     3    13     9
 0.0044230294     1     3    13    10
 0.0031481673     1     3    13    12
 0.0089034621     1     3    13    16
 0.0002700481     1     3    14     5
 0.0031952941     1     3    14    11
 -0.0026557083     1     3    14    15
 -0.0022772146     1     3    15    14
 0.0001349621     1     3    16     7
 -0.0005331692     1     3    16     8
 0.0016636419     1     3    16    13
 -0.0679982459     1     4     2     1
 -0.0070281346     1     4     2     2
 -0.0003018127     1     4     2     6
 -0.0023117377     1     4     2     9
 -0.0016164574     1     4     2    10
 -0.0011327184     1     4     2    12
 0.0034536154     1     4     2    16
 -0.0105678495     1     4     3     3
 0.0019319605     1     4     3     7
 -0.0021409518     1     4     3     8
 0.0037880010     1     4     3    13
 -0.9517802222     1     4     4     1
 0.0360562937     1     4     4     2
 0.0082276376     1     4     4     6
 0.0007269909     1     4     4     9
 -0.0101579983     1     4     4    10
 -0.0021153381     1     4     4    12
 -0.0113705116     1     4     4    16
 -0.0137232644     1     4     5     5
 -0.0076408816     1     4     5    11
 -0.0021988532     1     4     5    15
 0.0698715172     1     4     6     1
 -0.0061773424     1     4     6     2
 -0.0032987433     1     4     6     6
 0.0014126145     1     4     6     9
 0.0035839722     1     4     6    10
 0.0014669749     1     4     6    12
 0.0022378930     1     4     6    16
 0.0027702803     1     4     7     3
 -0.0020978688     1     4     7     7
 -0.0009607993     1     4     7     8
 -0.0024335252     1     4     7    13
 0.0018085269     1     4     8     3
 -0.0021773282     1     4     8     7
 -0.0013037420     1     4     8     8
 -0.0052943857     1     4     8    13
 -0.1716529501     1     4     9     1
 0.0089099856     1     4     9     2
 0.0042824437     1     4     9     6
 0.0009911495     1     4     9     9
 -0.0019612177     1     4     9    10
 -0.0032541263     1     4     9    12
 -0.0049333975     1     4     9    16
 -0.1670945752     1     4    10     1
 0.0125332451     1     4    10     2
 0.0052516939     1     4    10     6
 0.0017503517     1     4    10     9
 -0.0068611783     1     4    10    10
 -0.0031034911     1     4    10    12
 -0.0060576886     1     4    10    16
 -0.0061655598     1     4    11     5
 -0.0045045718     1     4    11    11
 0.0016078785     1     4    11    15
 -0.0532835596     1     4    12     1
 0.0050123877     1     4    12     2
 0.0026415296     1     4    12     6
 -0.0024976834     1     4    12     9
 -0.0041570606     1     4    12    10
 -0.0032275372     1     4    12    12
 -0.0009837801     1     4    12    16
 0.0048857123     1     4    13     3
 -0.0022354715     1     4    13     7
 -0.0027964604     1     4    13     8
 -0.0041622968     1     4    13    13
 -0.0024047605     1     4    14    14
 0.0011101691     1     4    15     5
 0.0039105734     1     4    15    11
 -0.0018859083     1     4    15    15
 0.1274519190     1     4    16     1
 -0.0043756571     1     4    16     2
 -0.0016802287     1     4    16     6
 -0.0012926695     1     4    16     9
 0.0011277859     1     4    16    10
 0.0015753257     1     4    16    12
 0.0024936804     1     4    16    16
 -0.0047970967     1     5     2    11
 0.0015096455     1     5     2    15
 -0.0037155645     1     5     3    14
 -0.0010609655     1     5     4    11
 -0.0034847718     1     5     4    15
 -0.9997031399     1     5     5     1
 0.0410546698     1     5     5     2
 0.0137232644     1     5     5     4
 0.0079115347     1     5     5     6
 0.0074794454     1     5     5     9
 -0.0081512116     1     5     5    10
 -0.0061548705     1     5     5    12
 -0.0118476644     1     5     5    16
 0.0021464746     1     5     6    11
 0.0000293592     1     5     6    15
 -0.0004235944     1     5     7    14
 0.0003870418     1     5     8    14
 -0.0014194293     1     5     9    11
 0.0001360599     1     5     9    15
 0.0011874848     1     5    10    11
 0.0003737669     1     5    10    15
 -0.3032501743     1     5    11     1
 0.0182059955     1     5    11     2
 0.0061655598     1     5    11     4
 0.0070626000     1     5    11     6
 0.0029574711     1     5    11     9
 -0.0040996323     1     5    11    10
 -0.0033696806     1     5    11    12
 -0.0127378536     1     5    11    16
 0.0005059080     1     5    12    11
 -0.0004647200     1     5    12    15
 0.0000194864     1     5    13    14
 -0.0002700481     1     5    14     3
 -0.0016483432     1     5    14     7
 -0.0005036542     1     5    14     8
 -0.0023372055     1     5    14    13
 0.0435694284     1     5    15     1
 -0.0028277555     1     5    15     2
 -0.0011101691     1     5    15     4
 -0.0015593359     1     5    15     6
 0.0006537190     1     5    15     9
 0.0029407471     1     5    15    10
 0.0008571470     1     5    15    12
 0.0000935020     1     5    15    16
 -0.0058269306     1     5    16    11
 -0.0004036669     1     5    16    15
 -0.1310058429     1     6     2     1
 0.0014035057     1     6     2     2
 0.0003018127     1     6     2     4
 0.0006821998     1     6     2     9
 0.0005877058     1     6     2    10
 0.0003667738     1     6     2    12
 -0.0007413917     1     6     2    16
 -0.0041916406     1     6     3     3
 0.0018491790     1     6     3     7
 0.0022455153     1     6     3     8
 0.0036591481     1     6     3    13
 0.0698715172     1     6     4     1
 -0.0063907441     1     6     4     2
 -0.0082276376     1     6     4     4
 -0.0029094714     1     6     4     9
 -0.0017022816     1     6     4    10
 -0.0011946705     1     6     4    12
 0.0039861810     1     6     4    16
 -0.0079115347     1     6     5     5
 -0.0049245265     1     6     5    11
 0.0016008361     1     6     5    15
 -0.3154110570     1     6     6     1
 0.0013283917     1     6     6     2
 0.0032987433     1     6     6     4
 0.0008468898     1     6     6     9
 0.0008152714     1     6     6    10
 0.0003330241     1     6     6    12
 -0.0011178804     1     6     6    16
 0.0036721061     1     6     7     3
 -0.0011735423     1     6     7     7
 -0.0010019161     1     6     7     8
 -0.0025998193     1     6     7    13
 0.0017837615     1     6     8     3
 -0.0003768573     1     6     8     7
 -0.0003611131     1     6     8     8
 -0.0004857228     1     6     8    13
 0.0074084968     1     6     9     1
 -0.0015034959     1     6     9     2
 -0.0042824437     1     6     9     4
 -0.0017809328     1     6     9     9
 -0.0016873909     1     6     9    10
 -0.0001298038     1     6     9    12
 0.0020116192     1     6     9    16
 0.1152572027     1     6    10     1
 -0.0026526667     1     6    10     2
 -0.0052516939     1     6    10     4
 -0.0022874600     1     6    10     9
 -0.0010871753     1     6    10    10
 -0.0003705978     1     6    10    12
 0.0024200848     1     6    10    16
 -0.0070626000     1     6    11     5
 -0.0045701524     1     6    11    11
 0.0005531034     1     6    11    15
 0.0619574911     1     6    12     1
 -0.0010340182     1     6    12     2
 -0.0026415296     1     6    12     4
 -0.0003851624     1     6    12     9
 -0.0003762142     1     6    12    10
 0.0001855657     1     6    12    12
 0.0007332273     1     6    12    16
 0.0052559953     1     6    13     3
 -0.0019596895     1     6    13     7
 -0.0012222044     1     6    13     8
 -0.0038187424     1     6    13    13
 0.0005287357     1     6    14    14
 0.0015593359     1     6    15     5
 0.0003133023     1     6    15    11
 0.0002185590     1     6    15    15
 0.0836423842     1     6    16     1
 0.0004743667     1     6    16     2
 0.0016802287     1     6    16     4
 0.0009420534     1     6    16     9
 0.0006088334     1     6    16    10
 -0.0000115240     1     6    16    12
 -0.0010110090     1     6    16    16
 -0.0020674329     1     7     2     3
 -0.0003186305     1     7     2     8
 -0.0005880112     1     7     2    13
 0.1529850207     1     7     3     1
 -0.0110185436     1     7     3     2
 -0.0019319605     1     7     3     4
 -0.0018491790     1     7     3     6
 -0.0003627368     1     7     3     9
 0.0005585569     1     7     3    10
 0.0018737938     1     7     3    12
 0.0037428190     1     7     3    16
 0.0010245362     1     7     4     3
 0.0012362485     1     7     4     8
 -0.0001986676     1     7     4    13
 0.0012404558     1     7     5    14
 0.0018378631     1     7     6     3
 -0.0006240922     1     7     6     8
 -0.0006365211     1     7     6    13
 -0.2837786990     1     7     7     1
 0.0034220852     1     7     7     2
 0.0020978688     1     7     7     4
 0.0011735423     1     7     7     6
 0.0008001790     1     7     7     9
 -0.0003397770     1     7     7    10
 -0.0002927223     1     7     7    12
 -0.0016578223     1     7     7    16
 -0.0652054643     1     7     8     1
 0.0023665109     1     7     8     2
 0.0021773282     1     7     8     4
 0.0003768573     1     7     8     6
 0.0001327609     1     7     8     9
 -0.0008255763     1     7     8    10
 -0.0007317688     1     7     8    12
 -0.0009053872     1     7     8    16
 0.0009049619     1     7     9     3
 -0.0002575197     1     7     9     8
 0.0003986642     1     7     9    13
 -0.0014281035     1     7    10     3
 -0.0002859820     1     7    10     8
 -0.0001974349     1     7    10    13
 -0.0003112900     1     7    11    14
 0.0006592364     1     7    12     3
 -0.0003859613     1     7    12     8
 -0.0002720501     1     7    12    13
 -0.1474644363     1     7    13     1
 0.0062887738     1     7    13     2
 0.0022354715     1     7    13     4
 0.0019596895     1     7    13     6
 0.0014037992     1     7    13     9
 -0.0015922842     1     7    13    10
 -0.0011662216     1     7    13    12
 -0.0034417304     1     7    13    16
 0.0016483432     1     7    14     5
 -0.0000743992     1     7    14    11
 0.0007724463     1     7    14    15
 0.0008118886     1     7    15    14
 -0.0001349621     1     7    16     3
 0.0002304167     1     7    16     8
 -0.0004902988     1     7    16    13
 -0.0023889358     1     8     2     3
 0.0003186305     1     8     2     7
 0.0001758377     1     8     2    13
 0.0810670724     1     8     3     1
 -0.0088117817     1     8     3     2
 0.0021409518     1     8     3     4
 -0.0022455153     1     8     3     6
 0.0009782788     1     8     3     9
 0.0022915197     1     8     3    10
 0.0021418263     1     8     3    12
 0.0021956924     1     8     3    16
 0.0040358623     1     8     4     3
 -0.0012362485     1     8     4     7
 -0.0025276496     1     8     4    13
 0.0008885129     1     8     5    14
 -0.0004215963     1     8     6     3
 0.0006240922     1     8     6     7
 0.0007365977     1     8     6    13
 -0.0652054643     1     8     7     1
 0.0026871578     1     8     7     2
 0.0009607993     1     8     7     4
 0.0010019161     1     8     7     6
 0.0003897807     1     8     7     9
 -0.0005411595     1     8     7    10
 -0.0003486456     1     8     7    12
 -0.0011375767     1     8     7    16
 -0.3894540747     1     8     8     1
 0.0020202190     1     8     8     2
 0.0013037420     1     8     8     4
 0.0003611131     1     8     8     6
 -0.0000188184     1     8     8     9
 -0.0007893612     1     8     8    10
 -0.0005945215     1     8     8    12
 -0.0005992371     1     8     8    16
 -0.0000468153     1     8     9     3
 0.0002575197     1     8     9     7
 0.0007760559     1     8     9    13
 -0.0018373819     1     8    10     3
 0.0002859820     1     8    10     7
 0.0003905210     1     8    10    13
 -0.0002051831     1     8    11    14
 -0.0005967896     1     8    12     3
 0.0003859613     1     8    12     7
 0.0005173696     1     8    12    13
 -0.0794073778     1     8    13     1
 0.0045420007     1     8    13     2
 0.0027964604     1     8    13     4
 0.0012222044     1     8    13     6
 0.0014238721     1     8    13     9
 -0.0006505493     1     8    13    10
 -0.0006659793     1     8    13    12
 -0.0027780071     1     8    13    16
 0.0005036542     1     8    14     5
 -0.0004680416     1     8    14    11
 0.0006196174     1     8    14    15
 0.0005813197     1     8    15    14
 0.0005331692     1     8    16     3
 -0.0002304167     1     8    16     7
 -0.0008063066     1     8    16    13
 -0.0363036995     1     9     2     1
 -0.0029451671     1     9     2     2
 0.0023117377     1     9     2     4
 -0.0006821998     1     9     2     6
 0.0006536792     1     9     2    10
 0.0001203883     1     9     2    12
 0.0008873260     1     9     2    16
 -0.0028108701     1     9     3     3
 0.0003627368     1     9     3     7
 -0.0009782788     1     9     3     8
 0.0007629709     1     9     3    13
 -0.1716529501     1     9     4     1
 0.0119633909     1     9     4     2
 -0.0007269909     1     9     4     4
 0.0029094714     1     9     4     6
 -0.0037735622     1     9     4    10
 -0.0007811067     1     9     4    12
 -0.0036913542     1     9     4    16
 -0.0074794454     1     9     5     5
 -0.0044281346     1     9     5    11
 -0.0005216937     1     9     5    15
 0.0074084968     1     9     6     1
 -0.0021782737     1     9     6     2
 -0.0014126145     1     9     6     4
 -0.0008468898     1     9     6     6
 0.0006011702     1     9     6    10
 0.0002571348     1     9     6    12
 0.0010699064     1     9     6    16
 0.0012580096     1     9     7     3
 -0.0008001790     1     9     7     7
 -0.0003897807     1     9     7     8
 -0.0010054238     1     9     7    13
 -0.0010363554     1     9     8     3
 -0.0001327609     1     9     8     7
 0.0000188184     1     9     8     8
 -0.0006455599     1     9     8    13
 -0.3824392737     1     9     9     1
 0.0039849793     1     9     9     2
 -0.0009911495     1     9     9     4
 0.0017809328     1     9     9     6
 -0.0012867827     1     9     9    10
 -0.0013820000     1     9     9    12
 -0.0016132791     1     9     9    16
 -0.0347003861     1     9    10     1
 0.0053044125     1     9    10     2
 -0.0017503517     1     9    10     4
 0.0022874600     1     9    10     6
 -0.0033022446     1     9    10    10
 -0.0014725839     1     9    10    12
 -0.0018971198     1     9    10    16
 -0.0029574711     1     9    11     5
 -0.0019961901     1     9    11    11
 0.0006330523     1     9    11    15
 -0.0247415706     1     9    12     1
 0.0015777286     1     9    12     2
 0.0024976834     1     9    12     4
 0.0003851624     1     9    12     6
 -0.0002820043     1     9    12    10
 -0.0006274577     1     9    12    12
 -0.0008250726     1     9    12    16
 0.0035562741     1     9    13     3
 -0.0014037992     1     9    13     7
 -0.0014238721     1     9    13     8
 -0.0026485133     1     9    13    13
 -0.0008033572     1     9    14    14
 -0.0006537190     1     9    15     5
 0.0006853527     1     9    15    11
 -0.0005180682     1     9    15    15
 0.0696694924     1     9    16     1
 -0.0022020252     1     9    16     2
 0.0012926695     1     9    16     4
 -0.0009420534     1     9    16     6
 0.0011089434     1     9    16    10
 0.0008440204     1     9    16    12
 0.0007152252     1     9    16    16
 0.1122320673     1    10     2     1
 -0.0036791382     1    10     2     2
 0.0016164574     1    10     2     4
 -0.0005877058     1    10     2     6
 -0.0006536792     1    10     2     9
 -0.0002353040     1    10     2    12
 0.0014290497     1    10     2    16
 -0.0005926633     1    10     3     3
 -0.0005585569     1    10     3     7
 -0.0022915197     1    10     3     8
 -0.0011717834     1    10     3    13
 -0.1670945752     1    10     4     1
 0.0151511563     1    10     4     2
 0.0101579983     1    10     4     4
 0.0017022816     1    10     4     6
 0.0037735622     1    10     4     9
 0.0010480998     1    10     4    12
 -0.0073338184     1    10     4    16
 0.0081512116     1    10     5     5
 0.0052846351     1    10     5    11
 -0.0025747059     1    10     5    15
 0.1152572027     1    10     6     1
 -0.0032162313     1    10     6     2
 -0.0035839722     1    10     6     4
 -0.0008152714     1    10     6     6
 -0.0006011702     1    10     6     9
 0.0000071045     1    10     6    12
 0.0018144255     1    10     6    16
 -0.0019941789     1    10     7     3
 0.0003397770     1    10     7     7
 0.0005411595     1    10     7     8
 0.0013969540     1    10     7    13
 -0.0040802454     1    10     8     3
 0.0008255763     1    10     8     7
 0.0007893612     1    10     8     8
 0.0010408252     1    10     8    13
 -0.0347003861     1    10     9     1
 0.0046730712     1    10     9     2
 0.0019612177     1    10     9     4
 0.0016873909     1    10     9     6
 0.0012867827     1    10     9     9
 -0.0011880869     1    10     9    12
 -0.0030088302     1    10     9    16
 -0.4568964732     1    10    10     1
 0.0063962808     1    10    10     2
 0.0068611783     1    10    10     4
 0.0010871753     1    10    10     6
 0.0033022446     1    10    10     9
 -0.0001689789     1    10    10    12
 -0.0043915382     1    10    10    16
 0.0040996323     1    10    11     5
 0.0027266068     1    10    11    11
 -0.0000490190     1    10    11    15
 -0.0436847753     1    10    12     1
 0.0023118719     1    10    12     2
 0.0041570606     1    10    12     4
 0.0003762142     1    10    12     6
 0.0002820043     1    10    12     9
 -0.0007174494     1    10    12    12
 -0.0013210039     1    10    12    16
 -0.0044230294     1    10    13     3
 0.0015922842     1    10    13     7
 0.0006505493     1    10    13     8
 0.0031383620     1    10    13    13
 -0.0011290385     1    10    14    14
 -0.0029407471     1    10    15     5
 -0.0003657201     1    10    15    11
 -0.0005184866     1    10    15    15
 0.0056737547     1    10    16     1
 -0.0020401324     1    10    16     2
 -0.0011277859     1    10    16     4
 -0.0006088334     1    10    16     6
 -0.0011089434     1    10    16     9
 0.0005553264     1    10    16    12
 0.0016425499     1    10    16    16
 0.0047970967     1    11     2     5
 0.0004534850     1    11     2    15
 -0.0023360147     1    11     3    14
 0.0010609655     1    11     4     5
 -0.0023114847     1    11     4    15
 -0.3032501743     1    11     5     1
 0.0244945487     1    11     5     2
 0.0076408816     1    11     5     4
 0.0049245265     1    11     5     6
 0.0044281346     1    11     5     9
 -0.0052846351     1    11     5    10
 -0.0038950799     1    11     5    12
 -0.0070261607     1    11     5    16
 -0.0021464746     1    11     6     5
 0.0002374600     1    11     6    15
 -0.0002378702     1    11     7    14
 0.0002614473     1    11     8    14
 0.0014194293     1    11     9     5
 -0.0000523165     1    11     9    15
 -0.0011874848     1    11    10     5
 0.0003210250     1    11    10    15
 -0.5393859903     1    11    11     1
 0.0136139638     1    11    11     2
 0.0045045718     1    11    11     4
 0.0045701524     1    11    11     6
 0.0019961901     1    11    11     9
 -0.0027266068     1    11    11    10
 -0.0022298833     1    11    11    12
 -0.0083121403     1    11    11    16
 -0.0005059080     1    11    12     5
 -0.0002452482     1    11    12    15
 0.0000252558     1    11    13    14
 -0.0031952941     1    11    14     3
 0.0000743992     1    11    14     7
 0.0004680416     1    11    14     8
 0.0006011287     1    11    14    13
 0.0394901265     1    11    15     1
 -0.0016067584     1    11    15     2
 -0.0039105734     1    11    15     4
 -0.0003133023     1    11    15     6
 -0.0006853527     1    11    15     9
 0.0003657201     1    11    15    10
 -0.0000380457     1    11    15    12
 0.0006898219     1    11    15    16
 0.0058269306     1    11    16     5
 -0.0008058534     1    11    16    15
 0.0755694054     1    12     2     1
 -0.0016144799     1    12     2     2
 0.0011327184     1    12     2     4
 -0.0003667738     1    12     2     6
 -0.0001203883     1    12     2     9
 0.0002353040     1    12     2    10
 0.0005032519     1    12     2    16
 0.0042644939     1    12     3     3
 -0.0018737938     1    12     3     7
 -0.0021418263     1    12     3     8
 -0.0036672623     1    12     3    13
 -0.0532835596     1    12     4     1
 0.0065557521     1    12     4     2
 0.0021153381     1    12     4     4
 0.0011946705     1    12     4     6
 0.0007811067     1    12     4     9
 -0.0010480998     1    12     4    10
 -0.0026306845     1    12     4    16
 0.0061548705     1    12     5     5
 0.0038950799     1    12     5    11
 -0.0013214580     1    12     5    15
 0.0619574911     1    12     6     1
 -0.0013890290     1    12     6     2
 -0.0014669749     1    12     6     4
 -0.0003330241     1    12     6     6
 -0.0002571348     1    12     6     9
 -0.0000071045     1    12     6    10
 0.0007476324     1    12     6    16
 -0.0011990739     1    12     7     3
 0.0002927223     1    12     7     7
 0.0003486456     1    12     7     8
 0.0008977313     1    12     7    13
 -0.0027159923     1    12     8     3
 0.0007317688     1    12     8     7
 0.0005945215     1    12     8     8
 0.0011802742     1    12     8    13
 -0.0247415706     1    12     9     1
 0.0014819698     1    12     9     2
 0.0032541263     1    12     9     4
 0.0001298038     1    12     9     6
 0.0013820000     1    12     9     9
 0.0011880869     1    12     9    10
 -0.0016711126     1    12     9    16
 -0.0436847753     1    12    10     1
 0.0025573956     1    12    10     2
 0.0031034911     1    12    10     4
 0.0003705978     1    12    10     6
 0.0014725839     1    12    10     9
 0.0001689789     1    12    10    10
 -0.0018803185     1    12    10    16
 0.0033696806     1    12    11     5
 0.0022298833     1    12    11    11
 -0.0002104352     1    12    11    15
 -0.3783753565     1    12    12     1
 0.0008743954     1    12    12     2
 0.0032275372     1    12    12     4
 -0.0001855657     1    12    12     6