&FCI NORB=  8,NELEC= 10,MS2=0,
 ORBSYM=1,1,1,1,1,1,1,1
 ISYM=1,
&END
 0.9842042410     1     1     2     2
 0.0683217986     1     1     2     4
 -0.1262293571     1     1     2     6
 0.8687289833     1     1     3     3
 0.1490500652     1     1     3     7
 0.0882240567     1     1     3     8
 0.0683217986     1     1     4     2
 0.9507686348     1     1     4     4
 0.0645672090     1     1     4     6
 0.9980960876     1     1     5     5
 -0.1262293571     1     1     6     2
 0.0645672090     1     1     6     4
 0.3477928689     1     1     6     6
 0.1490500652     1     1     7     3
 0.3252937036     1     1     7     7
 0.0988048406     1     1     7     8
 0.0882240567     1     1     8     3
 0.0988048406     1     1     8     7
 0.4543141973     1     1     8     8
 -0.9842042410     1     2     2     1
 -0.0069537783     1     2     2     4
 -0.0009677401     1     2     2     6
 0.0307493363     1     2     3     3
 0.0121605703     1     2     3     7
 0.0111369949     1     2     3     8
 -0.0683217986     1     2     4     1
 0.0357085399     1     2     4     4
 0.0067841292     1     2     4     6
 0.0406728967     1     2     5     5
 0.1262293571     1     2     6     1
 0.0064064769     1     2     6     4
 0.0019018086     1     2     6     6
 0.0086604986     1     2     7     3
 0.0048956074     1     2     7     7
 0.0043317437     1     2     7     8
 0.0072292561     1     2     8     3
 0.0038466093     1     2     8     7
 0.0033706136     1     2     8     8
 0.0026425296     1     3     2     7
 0.0032692534     1     3     2     8
 -0.8687289833     1     3     3     1
 -0.0307493363     1     3     3     2
 -0.0105931696     1     3     3     4
 0.0045170894     1     3     3     6
 -0.0012961994     1     3     4     7
 -0.0050036539     1     3     4     8
 0.0021274031     1     3     6     7
 -0.0004377620     1     3     6     8
 -0.1490500652     1     3     7     1
 -0.0086604986     1     3     7     2
 -0.0031542821     1     3     7     4
 0.0043651877     1     3     7     6
 -0.0882240567     1     3     8     1
 -0.0072292561     1     3     8     2
 -0.0023947879     1     3     8     4
 0.0026307289     1     3     8     6
 -0.0683217986     1     4     2     1
 0.0069537783     1     4     2     2
 -0.0002085163     1     4     2     6
 0.0105931696     1     4     3     3
 0.0020159304     1     4     3     7
 -0.0025625352     1     4     3     8
 -0.9507686348     1     4     4     1
 -0.0357085399     1     4     4     2
 0.0090456790     1     4     4     6
 0.0137882082     1     4     5     5
 -0.0645672090     1     4     6     1
 -0.0064064769     1     4     6     2
 0.0040477145     1     4     6     6
 0.0031542821     1     4     7     3
 0.0027501742     1     4     7     7
 0.0011331651     1     4     7     8
 0.0023947879     1     4     8     3
 0.0028797330     1     4     8     7
 0.0027972091     1     4     8     8
 -0.9980960876     1     5     5     1
 -0.0406728967     1     5     5     2
 -0.0137882082     1     5     5     4
 0.0088317465     1     5     5     6
 0.1262293571     1     6     2     1
 0.0009677401     1     6     2     2
 0.0002085163     1     6     2     4
 -0.0045170894     1     6     3     3
 -0.0021332674     1     6     3     7
 -0.0030334606     1     6     3     8
 -0.0645672090     1     6     4     1
 -0.0067841292     1     6     4     2
 -0.0090456790     1     6     4     4
 -0.0088317465     1     6     5     5
 -0.3477928689     1     6     6     1
 -0.0019018086     1     6     6     2
 -0.0040477145     1     6     6     4
 -0.0043651877     1     6     7     3
 -0.0017691809     1     6     7     7
 -0.0017551680     1     6     7     8
 -0.0026307289     1     6     8     3
 -0.0008387097     1     6     8     7
 -0.0005638032     1     6     8     8
 -0.0026425296     1     7     2     3
 0.0004471471     1     7     2     8
 -0.1490500652     1     7     3     1
 -0.0121605703     1     7     3     2
 -0.0020159304     1     7     3     4
 0.0021332674     1     7     3     6
 0.0012961994     1     7     4     3
 -0.0017018968     1     7     4     8
 -0.0021274031     1     7     6     3
 -0.0009169529     1     7     6     8
 -0.3252937036     1     7     7     1
 -0.0048956074     1     7     7     2
 -0.0027501742     1     7     7     4
 0.0017691809     1     7     7     6
 -0.0988048406     1     7     8     1
 -0.0038466093     1     7     8     2
 -0.0028797330     1     7     8     4
 0.0008387097     1     7     8     6
 -0.0032692534     1     8     2     3
 -0.0004471471     1     8     2     7
 -0.0882240567     1     8     3     1
 -0.0111369949     1     8     3     2
 0.0025625352     1     8     3     4
 0.0030334606     1     8     3     6
 0.0050036539     1     8     4     3
 0.0017018968     1     8     4     7
 0.0004377620     1     8     6     3
 0.0009169529     1     8     6     7
 -0.0988048406     1     8     7     1
 -0.0043317437     1     8     7     2
 -0.0011331651     1     8     7     4
 0.0017551680     1     8     7     6
 -0.4543141973     1     8     8     1
 -0.0033706136     1     8     8     2
 -0.0027972091     1     8     8     4
 0.0005638032     1     8     8     6
 -0.9842042410     2     1     1     2
 -0.0683217986     2     1     1     4
 0.1262293571     2     1     1     6
 0.0307493363     2     1     3     3
 0.0086604986     2     1     3     7
 0.0072292561     2     1     3     8
 -0.0069537783     2     1     4     2
 0.0357085399     2     1     4     4
 0.0064064769     2     1     4     6
 0.0406728967     2     1     5     5
 -0.0009677401     2     1     6     2
 0.0067841292     2     1     6     4
 0.0019018086     2     1     6     6
 0.0121605703     2     1     7     3
 0.0048956074     2     1     7     7
 0.0038466093     2     1     7     8
 0.0111369949     2     1     8     3
 0.0043317437     2     1     8     7
 0.0033706136     2     1     8     8
 0.9842042410     2     2     1     1
 0.0069537783     2     2     1     4
 0.0009677401     2     2     1     6
 0.5274843166     2     2     3     3
 0.0608340043     2     2     3     7
 0.0153109288     2     2     3     8
 0.0069537783     2     2     4     1
 0.5507081574     2     2     4     4
 0.0272617501     2     2     4     6
 0.5781186915     2     2     5     5
 0.0009677401     2     2     6     1
 0.0272617501     2     2     6     4
 0.3027078900     2     2     6     6
 0.0608340043     2     2     7     3
 0.2842492743     2     2     7     7
 0.0606687444     2     2     7     8
 0.0153109288     2     2     8     3
 0.0606687444     2     2     8     7
 0.4060304988     2     2     8     8
 -0.0026425296     2     3     1     7
 -0.0032692534     2     3     1     8
 -0.0307493363     2     3     3     1
 -0.5274843166     2     3     3     2
 -0.0021738035     2     3     3     4
 0.0593893064     2     3     3     6
 0.0102078934     2     3     4     7
 0.0325561151     2     3     4     8
 -0.0339562947     2     3     6     7
 0.0000268509     2     3     6     8
 -0.0121605703     2     3     7     1
 -0.0608340043     2     3     7     2
 0.0016020460     2     3     7     4
 -0.0213416124     2     3     7     6
 -0.0111369949     2     3     8     1
 -0.0153109288     2     3     8     2
 0.0048556824     2     3     8     4
 0.0019467258     2     3     8     6
 0.0683217986     2     4     1     1
 -0.0069537783     2     4     1     2
 0.0002085163     2     4     1     6
 0.0021738035     2     4     3     3
 0.0085485279     2     4     3     7
 0.0276701629     2     4     3     8
 -0.0357085399     2     4     4     1
 -0.5507081574     2     4     4     2
 0.0592181513     2     4     4     6
 0.0049705172     2     4     5     5
 -0.0067841292     2     4     6     1
 -0.0272617501     2     4     6     2
 -0.0107803059     2     4     6     6
 -0.0016020460     2     4     7     3
 -0.0125951904     2     4     7     7
 -0.0024908679     2     4     7     8
 -0.0048556824     2     4     8     3
 -0.0082331730     2     4     8     7
 -0.0055323312     2     4     8     8
 -0.0406728967     2     5     5     1
 -0.5781186915     2     5     5     2
 -0.0049705172     2     5     5     4
 0.0575627052     2     5     5     6
 -0.1262293571     2     6     1     1
 -0.0009677401     2     6     1     2
 -0.0002085163     2     6     1     4
 -0.0593893064     2     6     3     3
 -0.0115385503     2     6     3     7
 -0.0008359333     2     6     3     8
 -0.0064064769     2     6     4     1
 -0.0272617501     2     6     4     2
 -0.0592181513     2     6     4     4
 -0.0575627052     2     6     5     5
 -0.0019018086     2     6     6     1
 -0.3027078900     2     6     6     2
 0.0107803059     2     6     6     4
 0.0213416124     2     6     7     3
 -0.0079967765     2     6     7     7
 -0.0122869001     2     6     7     8
 -0.0019467258     2     6     8     3
 -0.0070139497     2     6     8     7
 -0.0248218753     2     6     8     8
 0.0026425296     2     7     1     3
 -0.0004471471     2     7     1     8
 -0.0086604986     2     7     3     1
 -0.0608340043     2     7     3     2
 -0.0085485279     2     7     3     4
 0.0115385503     2     7     3     6
 -0.0102078934     2     7     4     3
 0.0050162093     2     7     4     8
 0.0339562947     2     7     6     3
 -0.0053744859     2     7     6     8
 -0.0048956074     2     7     7     1
 -0.2842492743     2     7     7     2
 0.0125951904     2     7     7     4
 0.0079967765     2     7     7     6
 -0.0043317437     2     7     8     1
 -0.0606687444     2     7     8     2
 0.0082331730     2     7     8     4
 0.0070139497     2     7     8     6
 0.0032692534     2     8     1     3
 0.0004471471     2     8     1     7
 -0.0072292561     2     8     3     1
 -0.0153109288     2     8     3     2
 -0.0276701629     2     8     3     4
 0.0008359333     2     8     3     6
 -0.0325561151     2     8     4     3
 -0.0050162093     2     8     4     7
 -0.0000268509     2     8     6     3
 0.0053744859     2     8     6     7
 -0.0038466093     2     8     7     1
 -0.0606687444     2     8     7     2
 0.0024908679     2     8     7     4
 0.0122869001     2     8     7     6
 -0.0033706136     2     8     8     1
 -0.4060304988     2     8     8     2
 0.0055323312     2     8     8     4
 0.0248218753     2     8     8     6
 -0.8687289833     3     1     1     3
 -0.1490500652     3     1     1     7
 -0.0882240567     3     1     1     8
 -0.0307493363     3     1     2     3
 -0.0086604986     3     1     2     7
 -0.0072292561     3     1     2     8
 -0.0105931696     3     1     4     3
 -0.0031542821     3     1     4     7
 -0.0023947879     3     1     4     8
 0.0045170894     3     1     6     3
 0.0043651877     3     1     6     7
 0.0026307289     3     1     6     8
 0.0026425296     3     1     7     2
 -0.0012961994     3     1     7     4
 0.0021274031     3     1     7     6
 0.0032692534     3     1     8     2
 -0.0050036539     3     1     8     4
 -0.0004377620     3     1     8     6
 -0.0307493363     3     2     1     3
 -0.0121605703     3     2     1     7
 -0.0111369949     3     2     1     8
 -0.5274843166     3     2     2     3
 -0.0608340043     3     2     2     7
 -0.0153109288     3     2     2     8
 -0.0021738035     3     2     4     3
 0.0016020460     3     2     4     7
 0.0048556824     3     2     4     8
 0.0593893064     3     2     6     3
 -0.0213416124     3     2     6     7
 0.0019467258     3     2     6     8
 -0.0026425296     3     2     7     1
 0.0102078934     3     2     7     4
 -0.0339562947     3     2     7     6
 -0.0032692534     3     2     8     1
 0.0325561151     3     2     8     4
 0.0000268509     3     2     8     6
 0.8687289833     3     3     1     1
 0.0307493363     3     3     1     2
 0.0105931696     3     3     1     4
 -0.0045170894     3     3     1     6
 0.0307493363     3     3     2     1
 0.5274843166     3     3     2     2
 0.0021738035     3     3     2     4
 -0.0593893064     3     3     2     6
 0.0105931696     3     3     4     1
 0.0021738035     3     3     4     2
 0.5601838241     3     3     4     4
 0.0302053526     3     3     4     6
 0.5836186915     3     3     5     5
 -0.0045170894     3     3     6     1
 -0.0593893064     3     3     6     2
 0.0302053526     3     3     6     4
 0.3061921689     3     3     6     6
 0.2702668175     3     3     7     7
 0.0461567047     3     3     7     8
 0.0461567047     3     3     8     7
 0.3801104717     3     3     8     8
 -0.0105931696     3     4     1     3
 -0.0020159304     3     4     1     7
 0.0025625352     3     4     1     8
 -0.0021738035     3     4     2     3
 -0.0085485279     3     4     2     7
 -0.0276701629     3     4     2     8
 -0.5601838241     3     4     4     3
 -0.0760045971     3     4     4     7
 -0.0395090232     3     4     4     8
 -0.0302053526     3     4     6     3
 -0.0001117431     3     4     6     7
 -0.0032170404     3     4     6     8
 0.0012961994     3     4     7     1
 -0.0102078934     3     4     7     2
 0.0075460614     3     4     7     6
 0.0050036539     3     4     8     1
 -0.0325561151     3     4     8     2
 0.0001169233     3     4     8     6
 -0.5836186915     3     5     5     3
 -0.0785424347     3     5     5     7
 -0.0313089193     3     5     5     8
 0.0045170894     3     6     1     3
 0.0021332674     3     6     1     7
 0.0030334606     3     6     1     8
 0.0593893064     3     6     2     3
 0.0115385503     3     6     2     7
 0.0008359333     3     6     2     8
 -0.0302053526     3     6     4     3
 -0.0067447992     3     6     4     7
 -0.0022932459     3     6     4     8
 -0.3061921689     3     6     6     3
 -0.0256108219     3     6     6     7
 0.0133655416     3     6     6     8
 -0.0021274031     3     6     7     1
 0.0339562947     3     6     7     2
 -0.0075460614     3     6     7     4
 0.0004377620     3     6     8     1
 -0.0000268509     3     6     8     2
 -0.0001169233     3     6     8     4
 0.1490500652     3     7     1     1
 0.0121605703     3     7     1     2
 0.0020159304     3     7     1     4
 -0.0021332674     3     7     1     6
 0.0086604986     3     7     2     1
 0.0608340043     3     7     2     2
 0.0085485279     3     7     2     4
 -0.0115385503     3     7     2     6
 0.0031542821     3     7     4     1
 -0.0016020460     3     7     4     2
 0.0760045971     3     7     4     4
 0.0067447992     3     7     4     6
 0.0785424347     3     7     5     5
 -0.0043651877     3     7     6     1
 0.0213416124     3     7     6     2
 0.0001117431     3     7     6     4
 0.0256108219     3     7     6     6
 -0.2702668175     3     7     7     3
 0.0186891977     3     7     7     8
 -0.0461567047     3     7     8     3
 0.0289657300     3     7     8     8
 0.0882240567     3     8     1     1
 0.0111369949     3     8     1     2
 -0.0025625352     3     8     1     4
 -0.0030334606     3     8     1     6
 0.0072292561     3     8     2     1
 0.0153109288     3     8     2     2
 0.0276701629     3     8     2     4
 -0.0008359333     3     8     2     6
 0.0023947879     3     8     4     1
 -0.0048556824     3     8     4     2
 0.0395090232     3     8     4     4
 0.0022932459     3     8     4     6
 0.0313089193     3     8     5     5
 -0.0026307289     3     8     6     1
 -0.0019467258     3     8     6     2
 0.0032170404     3     8     6     4
 -0.0133655416     3     8     6     6
 -0.0461567047     3     8     7     3
 -0.0186891977     3     8     7     7
 -0.3801104717     3     8     8     3
 -0.0289657300     3     8     8     7
 -0.0683217986     4     1     1     2
 -0.9507686348     4     1     1     4
 -0.0645672090     4     1     1     6
 0.0069537783     4     1     2     2
 -0.0357085399     4     1     2     4
 -0.0064064769     4     1     2     6
 0.0105931696     4     1     3     3
 0.0031542821     4     1     3     7
 0.0023947879     4     1     3     8
 0.0137882082     4     1     5     5
 -0.0002085163     4     1     6     2
 0.0090456790     4     1     6     4
 0.0040477145     4     1     6     6
 0.0020159304     4     1     7     3
 0.0027501742     4     1     7     7
 0.0028797330     4     1     7     8
 -0.0025625352     4     1     8     3
 0.0011331651     4     1     8     7
 0.0027972091     4     1     8     8
 0.0683217986     4     2     1     1
 -0.0357085399     4     2     1     4
 -0.0067841292     4     2     1     6
 -0.0069537783     4     2     2     1
 -0.5507081574     4     2     2     4
 -0.0272617501     4     2     2     6
 0.0021738035     4     2     3     3
 -0.0016020460     4     2     3     7
 -0.0048556824     4     2     3     8
 0.0049705172     4     2     5     5
 0.0002085163     4     2     6     1
 0.0592181513     4     2     6     4
 -0.0107803059     4     2     6     6
 0.0085485279     4     2     7     3
 -0.0125951904     4     2     7     7
 -0.0082331730     4     2     7     8
 0.0276701629     4     2     8     3
 -0.0024908679     4     2     8     7
 -0.0055323312     4     2     8     8
 0.0012961994     4     3     1     7
 0.0050036539     4     3     1     8
 -0.0102078934     4     3     2     7
 -0.0325561151     4     3     2     8
 -0.0105931696     4     3     3     1
 -0.0021738035     4     3     3     2
 -0.5601838241     4     3     3     4
 -0.0302053526     4     3     3     6
 0.0075460614     4     3     6     7
 0.0001169233     4     3     6     8
 -0.0020159304     4     3     7     1
 -0.0085485279     4     3     7     2
 -0.0760045971     4     3     7     4
 -0.0001117431     4     3     7     6
 0.0025625352     4     3     8     1
 -0.0276701629     4     3     8     2
 -0.0395090232     4     3     8     4
 -0.0032170404     4     3     8     6
 0.9507686348     4     4     1     1
 0.0357085399     4     4     1     2
 -0.0090456790     4     4     1     6
 0.0357085399     4     4     2     1
 0.5507081574     4     4     2     2
 -0.0592181513     4     4     2     6
 0.5601838241     4     4     3     3
 0.0760045971     4     4     3     7
 0.0395090232     4     4     3     8
 0.6043596864     4     4     5     5
 -0.0090456790     4     4     6     1
 -0.0592181513     4     4     6     2
 0.2924202069     4     4     6     6
 0.0760045971     4     4     7     3
 0.2740937963     4     4     7     7
 0.0532070683     4     4     7     8
 0.0395090232     4     4     8     3
 0.0532070683     4     4     8     7
 0.3768410000     4     4     8     8
 -0.0137882082     4     5     5     1
 -0.0049705172     4     5     5     2
 -0.6043596864     4     5     5     4
 -0.0364228526     4     5     5     6
 0.0645672090     4     6     1     1
 0.0067841292     4     6     1     2
 0.0090456790     4     6     1     4
 0.0064064769     4     6     2     1
 0.0272617501     4     6     2     2
 0.0592181513     4     6     2     4
 0.0302053526     4     6     3     3
 0.0067447992     4     6     3     7
 0.0022932459     4     6     3     8
 0.0364228526     4     6     5     5
 -0.0040477145     4     6     6     1
 0.0107803059     4     6     6     2
 -0.2924202069     4     6     6     4
 0.0001117431     4     6     7     3
 0.0077170707     4     6     7     7
 0.0248172172     4     6     7     8
 0.0032170404     4     6     8     3
 0.0010708818     4     6     8     7
 0.0096559228     4     6     8     8
 -0.0012961994     4     7     1     3
 0.0017018968     4     7     1     8
 0.0102078934     4     7     2     3
 -0.0050162093     4     7     2     8
 -0.0031542821     4     7     3     1
 0.0016020460     4     7     3     2
 -0.0760045971     4     7     3     4
 -0.0067447992     4     7     3     6
 -0.0075460614     4     7     6     3
 0.0238432882     4     7     6     8
 -0.0027501742     4     7     7     1
 0.0125951904     4     7     7     2
 -0.2740937963     4     7     7     4
 -0.0077170707     4     7     7     6
 -0.0011331651     4     7     8     1
 0.0024908679     4     7     8     2
 -0.0532070683     4     7     8     4
 -0.0010708818     4     7     8     6
 -0.0050036539     4     8     1     3
 -0.0017018968     4     8     1     7
 0.0325561151     4     8     2     3
 0.0050162093     4     8     2     7
 -0.0023947879     4     8     3     1
 0.0048556824     4     8     3     2
 -0.0395090232     4     8     3     4
 -0.0022932459     4     8     3     6
 -0.0001169233     4     8     6     3
 -0.0238432882     4     8     6     7
 -0.0028797330     4     8     7     1
 0.0082331730     4     8     7     2
 -0.0532070683     4     8     7     4
 -0.0248172172     4     8     7     6
 -0.0027972091     4     8     8     1
 0.0055323312     4     8     8     2
 -0.3768410000     4     8     8     4
 -0.0096559228     4     8     8     6
 -0.9980960876     5     1     1     5
 -0.0406728967     5     1     2     5
 -0.0137882082     5     1     4     5
 0.0088317465     5     1     6     5
 -0.0406728967     5     2     1     5
 -0.5781186915     5     2     2     5
 -0.0049705172     5     2     4     5
 0.0575627052     5     2     6     5
 -0.5836186915     5     3     3     5
 -0.0785424347     5     3     7     5
 -0.0313089193     5     3     8     5
 -0.0137882082     5     4     1     5
 -0.0049705172     5     4     2     5
 -0.6043596864     5     4     4     5
 -0.0364228526     5     4     6     5
 0.9980960876     5     5     1     1
 0.0406728967     5     5     1     2
 0.0137882082     5     5     1     4
 -0.0088317465     5     5     1     6
 0.0406728967     5     5     2     1
 0.5781186915     5     5     2     2
 0.0049705172     5     5     2     4
 -0.0575627052     5     5     2     6
 0.5836186915     5     5     3     3
 0.0785424347     5     5     3     7
 0.0313089193     5     5     3     8
 0.0137882082     5     5     4     1
 0.0049705172     5     5     4     2
 0.6043596864     5     5     4     4
 0.0364228526     5     5     4     6
 -0.0088317465     5     5     6     1
 -0.0575627052     5     5     6     2
 0.0364228526     5     5     6     4
 0.3021531815     5     5     6     6
 0.0785424347     5     5     7     3
 0.2794549433     5     5     7     7
 0.0589739789     5     5     7     8
 0.0313089193     5     5     8     3
 0.0589739789     5     5     8     7
 0.3944397819     5     5     8     8
 0.0088317465     5     6     1     5
 0.0575627052     5     6     2     5
 -0.0364228526     5     6     4     5
 -0.3021531815     5     6     6     5
 -0.0785424347     5     7     3     5
 -0.2794549433     5     7     7     5
 -0.0589739789     5     7     8     5
 -0.0313089193     5     8     3     5
 -0.0589739789     5     8     7     5
 -0.3944397819     5     8     8     5
 0.1262293571     6     1     1     2
 -0.0645672090     6     1     1     4
 -0.3477928689     6     1     1     6
 0.0009677401     6     1     2     2
 -0.0067841292     6     1     2     4
 -0.0019018086     6     1     2     6
 -0.0045170894     6     1     3     3
 -0.0043651877     6     1     3     7
 -0.0026307289     6     1     3     8
 0.0002085163     6     1     4     2
 -0.0090456790     6     1     4     4
 -0.0040477145     6     1     4     6
 -0.0088317465     6     1     5     5
 -0.0021332674     6     1     7     3
 -0.0017691809     6     1     7     7
 -0.0008387097     6     1     7     8
 -0.0030334606     6     1     8     3
 -0.0017551680     6     1     8     7
 -0.0005638032     6     1     8     8
 -0.1262293571     6     2     1     1
 -0.0064064769     6     2     1     4
 -0.0019018086     6     2     1     6
 -0.0009677401     6     2     2     1
 -0.0272617501     6     2     2     4
 -0.3027078900     6     2     2     6
 -0.0593893064     6     2     3     3
 0.0213416124     6     2     3     7
 -0.0019467258     6     2     3     8
 -0.0002085163     6     2     4     1
 -0.0592181513     6     2     4     4
 0.0107803059     6     2     4     6
 -0.0575627052     6     2     5     5
 -0.0115385503     6     2     7     3
 -0.0079967765     6     2     7     7
 -0.0070139497     6     2     7     8
 -0.0008359333     6     2     8     3
 -0.0122869001     6     2     8     7
 -0.0248218753     6     2     8     8
 -0.0021274031     6     3     1     7
 0.0004377620     6     3     1     8
 0.0339562947     6     3     2     7
 -0.0000268509     6     3     2     8
 0.0045170894     6     3     3     1
 0.0593893064     6     3     3     2
 -0.0302053526     6     3     3     4
 -0.3061921689     6     3     3     6
 -0.0075460614     6     3     4     7
 -0.0001169233     6     3     4     8
 0.0021332674     6     3     7     1
 0.0115385503     6     3     7     2
 -0.0067447992     6     3     7     4
 -0.0256108219     6     3     7     6
 0.0030334606     6     3     8     1
 0.0008359333     6     3     8     2
 -0.0022932459     6     3     8     4
 0.0133655416     6     3     8     6
 0.0645672090     6     4     1     1
 0.0064064769     6     4     1     2
 -0.0040477145     6     4     1     6
 0.0067841292     6     4     2     1
 0.0272617501     6     4     2     2
 0.0107803059     6     4     2     6
 0.0302053526     6     4     3     3
 0.0001117431     6     4     3     7
 0.0032170404     6     4     3     8
 0.0090456790     6     4     4     1
 0.0592181513     6     4     4     2
 -0.2924202069     6     4     4     6
 0.0364228526     6     4     5     5
 0.0067447992     6     4     7     3
 0.0077170707     6     4     7     7
 0.0010708818     6     4     7     8
 0.0022932459     6     4     8     3
 0.0248172172     6     4     8     7
 0.0096559228     6     4     8     8
 0.0088317465     6     5     5     1
 0.0575627052     6     5     5     2
 -0.0364228526     6     5     5     4
 -0.3021531815     6     5     5     6
 0.3477928689     6     6     1     1
 0.0019018086     6     6     1     2
 0.0040477145     6     6     1     4
 0.0019018086     6     6     2     1
 0.3027078900     6     6     2     2
 -0.0107803059     6     6     2     4
 0.3061921689     6     6     3     3
 0.0256108219     6     6     3     7
 -0.0133655416     6     6     3     8
 0.0040477145     6     6     4     1
 -0.0107803059     6     6     4     2
 0.2924202069     6     6     4     4
 0.3021531815     6     6     5     5
 0.0256108219     6     6     7     3
 0.1876531684     6     6     7     7
 0.0242041286     6     6     7     8
 -0.0133655416     6     6     8     3
 0.0242041286     6     6     8     7
 0.2663987567     6     6     8     8
 0.0021274031     6     7     1     3
 0.0009169529     6     7     1     8
 -0.0339562947     6     7     2     3
 0.0053744859     6     7     2     8
 0.0043651877     6     7     3     1
 -0.0213416124     6     7     3     2
 -0.0001117431     6     7     3     4
 -0.0256108219     6     7     3     6
 0.0075460614     6     7     4     3
 -0.0238432882     6     7     4     8
 0.0017691809     6     7     7     1
 0.0079967765     6     7     7     2
 -0.0077170707     6     7     7     4
 -0.1876531684     6     7     7     6
 0.0017551680     6     7     8     1
 0.0122869001     6     7     8     2
 -0.0248172172     6     7     8     4
 -0.0242041286     6     7     8     6
 -0.0004377620     6     8     1     3
 -0.0009169529     6     8     1     7
 0.0000268509     6     8     2     3
 -0.0053744859     6     8     2     7
 0.0026307289     6     8     3     1
 0.0019467258     6     8     3     2
 -0.0032170404     6     8     3     4
 0.0133655416     6     8     3     6
 0.0001169233     6     8     4     3
 0.0238432882     6     8     4     7
 0.0008387097     6     8     7     1
 0.0070139497     6     8     7     2
 -0.0010708818     6     8     7     4
 -0.0242041286     6     8     7     6
 0.0005638032     6     8     8     1
 0.0248218753     6     8     8     2
 -0.0096559228     6     8     8     4
 -0.2663987567     6     8     8     6
 -0.1490500652     7     1     1     3
 -0.3252937036     7     1     1     7
 -0.0988048406     7     1     1     8
 -0.0121605703     7     1     2     3
 -0.0048956074     7     1     2     7
 -0.0038466093     7     1     2     8
 -0.0026425296     7     1     3     2
 0.0012961994     7     1     3     4
 -0.0021274031     7     1     3     6
 -0.0020159304     7     1     4     3
 -0.0027501742     7     1     4     7
 -0.0028797330     7     1     4     8
 0.0021332674     7     1     6     3
 0.0017691809     7     1     6     7
 0.0008387097     7     1     6     8
 0.0004471471     7     1     8     2
 -0.0017018968     7     1     8     4
 -0.0009169529     7     1     8     6
 -0.0086604986     7     2     1     3
 -0.0048956074     7     2     1     7
 -0.0043317437     7     2     1     8
 -0.0608340043     7     2     2     3
 -0.2842492743     7     2     2     7
 -0.0606687444     7     2     2     8
 0.0026425296     7     2     3     1
 -0.0102078934     7     2     3     4
 0.0339562947     7     2     3     6
 -0.0085485279     7     2     4     3
 0.0125951904     7     2     4     7
 0.0082331730     7     2     4     8
 0.0115385503     7     2     6     3
 0.0079967765     7     2     6     7
 0.0070139497     7     2     6     8
 -0.0004471471     7     2     8     1
 0.0050162093     7     2     8     4
 -0.0053744859     7     2     8     6
 0.1490500652     7     3     1     1
 0.0086604986     7     3     1     2
 0.0031542821     7     3     1     4
 -0.0043651877     7     3     1     6
 0.0121605703     7     3     2     1
 0.0608340043     7     3     2     2
 -0.0016020460     7     3     2     4
 0.0213416124     7     3     2     6
 -0.2702668175     7     3     3     7
 -0.0461567047     7     3     3     8
 0.0020159304     7     3     4     1
 0.0085485279     7     3     4     2
 0.0760045971     7     3     4     4
 0.0001117431     7     3     4     6
 0.0785424347     7     3     5     5
 -0.0021332674     7     3     6     1
 -0.0115385503     7     3     6     2