&FCI NORB= 14,NELEC= 10,MS2=0,
 ORBSYM=1,1,1,1,1,1,1,1,1,1,1,1,1,1
 ISYM=1,
&END
 1.0054767800     1     1     2     2
 -0.0613443706     1     1     2     3
 -0.0424715917     1     1     2     5
 -0.0619015990     1     1     2     6
 0.1057607357     1     1     2     7
 0.0079810246     1     1     2     8
 0.0621414440     1     1     2     9
 0.0419760309     1     1     2    11
 0.0602047874     1     1     2    12
 0.0452529178     1     1     2    14
 -0.0613443706     1     1     3     2
 0.9165519234     1     1     3     3
 0.0596646465     1     1     3     5
 0.0505961460     1     1     3     6
 0.1103758792     1     1     3     7
 0.0008283534     1     1     3     8
 -0.0140749175     1     1     3     9
 0.2413807254     1     1     3    11
 -0.0556705797     1     1     3    12
 0.0159771039     1     1     3    14
 1.0199021731     1     1     4     4
 0.1788660133     1     1     4    10
 0.2329272547     1     1     4    13
 -0.0424715917     1     1     5     2
 0.0596646465     1     1     5     3
 0.6967099902     1     1     5     5
 -0.3089728709     1     1     5     6
 -0.0360039721     1     1     5     7
 0.0381801058     1     1     5     8
 -0.0364345498     1     1     5     9
 0.0691003613     1     1     5    11
 0.0786276749     1     1     5    12
 -0.2129833567     1     1     5    14
 -0.0619015990     1     1     6     2
 0.0505961460     1     1     6     3
 -0.3089728709     1     1     6     5
 0.5219385237     1     1     6     6
 0.0196221354     1     1     6     7
 -0.0821220204     1     1     6     8
 0.0113701706     1     1     6     9
 -0.0167453120     1     1     6    11
 -0.1128393613     1     1     6    12
 0.2069957116     1     1     6    14
 0.1057607357     1     1     7     2
 0.1103758792     1     1     7     3
 -0.0360039721     1     1     7     5
 0.0196221354     1     1     7     6
 0.3111996257     1     1     7     7
 -0.0149476420     1     1     7     8
 0.0423059704     1     1     7     9
 0.1132775420     1     1     7    11
 0.0021980685     1     1     7    12
 0.0664551076     1     1     7    14
 0.0079810246     1     1     8     2
 0.0008283534     1     1     8     3
 0.0381801058     1     1     8     5
 -0.0821220204     1     1     8     6
 -0.0149476420     1     1     8     7
 0.2195104665     1     1     8     8
 -0.0073400831     1     1     8     9
 0.0123023279     1     1     8    11
 0.0072997394     1     1     8    12
 -0.0344589883     1     1     8    14
 0.0621414440     1     1     9     2
 -0.0140749175     1     1     9     3
 -0.0364345498     1     1     9     5
 0.0113701706     1     1     9     6
 0.0423059704     1     1     9     7
 -0.0073400831     1     1     9     8
 0.3341425051     1     1     9     9
 0.0288759507     1     1     9    11
 0.0268731087     1     1     9    12
 0.0545171658     1     1     9    14
 0.1788660133     1     1    10     4
 0.3480317507     1     1    10    10
 0.1197943383     1     1    10    13
 0.0419760309     1     1    11     2
 0.2413807254     1     1    11     3
 0.0691003613     1     1    11     5
 -0.0167453120     1     1    11     6
 0.1132775420     1     1    11     7
 0.0123023279     1     1    11     8
 0.0288759507     1     1    11     9
 0.4978491326     1     1    11    11
 0.0009737812     1     1    11    12
 -0.0253749561     1     1    11    14
 0.0602047874     1     1    12     2
 -0.0556705797     1     1    12     3
 0.0786276749     1     1    12     5
 -0.1128393613     1     1    12     6
 0.0021980685     1     1    12     7
 0.0072997394     1     1    12     8
 0.0268731087     1     1    12     9
 0.0009737812     1     1    12    11
 0.3493573900     1     1    12    12
 -0.0865102915     1     1    12    14
 0.2329272547     1     1    13     4
 0.1197943383     1     1    13    10
 0.4539574959     1     1    13    13
 0.0452529178     1     1    14     2
 0.0159771039     1     1    14     3
 -0.2129833567     1     1    14     5
 0.2069957116     1     1    14     6
 0.0664551076     1     1    14     7
 -0.0344589883     1     1    14     8
 0.0545171658     1     1    14     9
 -0.0253749561     1     1    14    11
 -0.0865102915     1     1    14    12
 0.5135387049     1     1    14    14
 -1.0054767800     1     2     2     1
 0.0065261233     1     2     2     3
 0.0002408831     1     2     2     5
 0.0007763260     1     2     2     6
 0.0020183849     1     2     2     7
 -0.0000361619     1     2     2     8
 0.0001924369     1     2     2     9
 0.0050042131     1     2     2    11
 -0.0009222901     1     2     2    12
 0.0009122486     1     2     2    14
 0.0613443706     1     2     3     1
 0.0348345927     1     2     3     3
 0.0034360198     1     2     3     5
 0.0022327557     1     2     3     6
 0.0092950636     1     2     3     7
 -0.0000085436     1     2     3     8
 0.0012736532     1     2     3     9
 0.0217755171     1     2     3    11
 -0.0031264529     1     2     3    12
 0.0025828753     1     2     3    14
 0.0439711115     1     2     4     4
 0.0145938972     1     2     4    10
 0.0205556381     1     2     4    13
 0.0424715917     1     2     5     1
 0.0029459539     1     2     5     3
 0.0239625033     1     2     5     5
 -0.0179125526     1     2     5     6
 -0.0015855572     1     2     5     7
 0.0034558291     1     2     5     8
 -0.0023821082     1     2     5     9
 0.0052882478     1     2     5    11
 0.0075996396     1     2     5    12
 -0.0181262240     1     2     5    14
 0.0619015990     1     2     6     1
 0.0015901605     1     2     6     3
 -0.0157291362     1     2     6     5
 0.0150234298     1     2     6     6
 0.0024074388     1     2     6     7
 -0.0029110164     1     2     6     8
 0.0018894603     1     2     6     9
 -0.0016076094     1     2     6    11
 -0.0065495050     1     2     6    12
 0.0150023905     1     2     6    14
 -0.1057607357     1     2     7     1
 0.0080137429     1     2     7     3
 -0.0012139177     1     2     7     5
 0.0024881798     1     2     7     6
 0.0025966497     1     2     7     7
 -0.0003902185     1     2     7     8
 0.0006032656     1     2     7     9
 0.0054457664     1     2     7    11
 -0.0015346696     1     2     7    12
 0.0026671077     1     2     7    14
 -0.0079810246     1     2     8     1
 0.0000586021     1     2     8     3
 0.0028686286     1     2     8     5
 -0.0027621331     1     2     8     6
 -0.0003596580     1     2     8     7
 0.0006700203     1     2     8     8
 -0.0004303226     1     2     8     9
 0.0006104390     1     2     8    11
 0.0011700525     1     2     8    12
 -0.0028094949     1     2     8    14
 -0.0621414440     1     2     9     1
 0.0010816000     1     2     9     3
 -0.0018053474     1     2     9     5
 0.0016489458     1     2     9     6
 0.0005734981     1     2     9     7
 -0.0003998737     1     2     9     8
 0.0004722924     1     2     9     9
 -0.0001118560     1     2     9    11
 -0.0005923480     1     2     9    12
 0.0016829236     1     2     9    14
 0.0110845263     1     2    10     4
 0.0048168838     1     2    10    10
 0.0063638657     1     2    10    13
 -0.0419760309     1     2    11     1
 0.0162142509     1     2    11     3
 0.0042337081     1     2    11     5
 -0.0010735925     1     2    11     6
 0.0045419751     1     2    11     7
 0.0004959830     1     2    11     8
 -0.0002313495     1     2    11     9
 0.0123665890     1     2    11    11
 -0.0011024756     1     2    11    12
 -0.0011993891     1     2    11    14
 -0.0602047874     1     2    12     1
 -0.0020271556     1     2    12     3
 0.0055757990     1     2    12     5
 -0.0056082649     1     2    12     6
 -0.0011990887     1     2    12     7
 0.0010533635     1     2    12     8
 -0.0005519449     1     2    12     9
 -0.0008700545     1     2    12    11
 0.0027058388     1     2    12    12
 -0.0052930465     1     2    12    14
 0.0149417987     1     2    13     4
 0.0060716772     1     2    13    10
 0.0082916463     1     2    13    13
 -0.0452529178     1     2    14     1
 0.0020507621     1     2    14     3
 -0.0134100662     1     2    14     5
 0.0129513862     1     2    14     6
 0.0023830452     1     2    14     7
 -0.0025439068     1     2    14     8
 0.0016551037     1     2    14     9
 -0.0010169255     1     2    14    11
 -0.0054383986     1     2    14    12
 0.0131777919     1     2    14    14
 0.0613443706     1     3     2     1
 -0.0065261233     1     3     2     2
 0.0004924799     1     3     2     5
 0.0005787553     1     3     2     6
 0.0006436065     1     3     2     7
 -0.0000787381     1     3     2     8
 0.0001208748     1     3     2     9
 0.0042723979     1     3     2    11
 -0.0009140307     1     3     2    12
 0.0003383225     1     3     2    14
 -0.9165519234     1     3     3     1
 -0.0348345927     1     3     3     2
 0.0015533072     1     3     3     5
 0.0031143594     1     3     3     6
 -0.0053951583     1     3     3     7
 -0.0006559537     1     3     3     8
 -0.0006178645     1     3     3     9
 -0.0020563863     1     3     3    11
 -0.0018264878     1     3     3    12
 -0.0019580514     1     3     3    14
 -0.0127123803     1     3     4     4
 -0.0045162927     1     3     4    10
 -0.0039979955     1     3     4    13
 -0.0596646465     1     3     5     1
 -0.0029459539     1     3     5     2
 -0.0065035965     1     3     5     5
 0.0062337331     1     3     5     6
 0.0002321496     1     3     5     7
 -0.0016659992     1     3     5     8
 -0.0005300901     1     3     5     9
 -0.0011789446     1     3     5    11
 -0.0010167523     1     3     5    12
 0.0051317592     1     3     5    14
 -0.0505961460     1     3     6     1
 -0.0015901605     1     3     6     2
 0.0048730868     1     3     6     5
 -0.0036328151     1     3     6     6
 -0.0004411718     1     3     6     7
 0.0009217571     1     3     6     8
 -0.0004383684     1     3     6     9
 0.0011142505     1     3     6    11
 0.0006518354     1     3     6    12
 -0.0036863371     1     3     6    14
 -0.1103758792     1     3     7     1
 -0.0080137429     1     3     7     2
 0.0010759823     1     3     7     5
 0.0006921393     1     3     7     6
 -0.0040974500     1     3     7     7
 -0.0002145616     1     3     7     8
 -0.0008015330     1     3     7     9
 -0.0030550786     1     3     7    11
 -0.0001071016     1     3     7    12
 -0.0012788424     1     3     7    14
 -0.0008283534     1     3     8     1
 -0.0000586021     1     3     8     2
 -0.0009286521     1     3     8     5
 0.0006040072     1     3     8     6
 -0.0000869238     1     3     8     7
 0.0004104808     1     3     8     8
 -0.0004536241     1     3     8     9
 0.0001106986     1     3     8    11
 -0.0000651625     1     3     8    12
 0.0002034500     1     3     8    14
 0.0140749175     1     3     9     1
 -0.0010816000     1     3     9     2
 0.0002137099     1     3     9     5
 -0.0008309434     1     3     9     6
 -0.0009542323     1     3     9     7
 -0.0003320186     1     3     9     8
 -0.0000871358     1     3     9     9
 -0.0039640075     1     3     9    11
 0.0009994827     1     3     9    12
 -0.0019526563     1     3     9    14
 -0.0031413259     1     3    10     4
 -0.0004681883     1     3    10    10
 -0.0017134343     1     3    10    13
 -0.2413807254     1     3    11     1
 -0.0162142509     1     3    11     2
 0.0002171280     1     3    11     5
 0.0031818707     1     3    11     6
 -0.0059299525     1     3    11     7
 -0.0003820406     1     3    11     8
 -0.0042789674     1     3    11     9
 -0.0054952543     1     3    11    11
 -0.0034166109     1     3    11    12
 -0.0017247708     1     3    11    14
 0.0556705797     1     3    12     1
 0.0020271556     1     3    12     2
 -0.0016424897     1     3    12     5
 0.0013730720     1     3    12     6
 0.0009421933     1     3    12     7
 -0.0003307122     1     3    12     8
 0.0009927540     1     3    12     9
 -0.0023325557     1     3    12    11
 -0.0002057666     1     3    12    12
 0.0032880443     1     3    12    14
 -0.0045388453     1     3    13     4
 -0.0025937291     1     3    13    10
 -0.0045863470     1     3    13    13
 -0.0159771039     1     3    14     1
 -0.0020507621     1     3    14     2
 0.0041806615     1     3    14     5
 -0.0032255248     1     3    14     6
 -0.0011230703     1     3    14     7
 0.0004911551     1     3    14     8
 -0.0013461896     1     3    14     9
 -0.0006625427     1     3    14    11
 0.0020307583     1     3    14    12
 -0.0040422963     1     3    14    14
 0.0026276348     1     4     2    10
 0.0044378704     1     4     2    13
 -0.0011892148     1     4     3    10
 0.0008684004     1     4     3    13
 -1.0199021731     1     4     4     1
 -0.0439711115     1     4     4     2
 0.0127123803     1     4     4     3
 0.0032867054     1     4     4     5
 0.0052332446     1     4     4     6
 -0.0057905782     1     4     4     7
 -0.0010742052     1     4     4     8
 -0.0065475078     1     4     4     9
 -0.0007270041     1     4     4    11
 -0.0068519205     1     4     4    12
 -0.0038961969     1     4     4    14
 0.0011983063     1     4     5    10
 -0.0007850088     1     4     5    13
 0.0001277266     1     4     6    10
 0.0005711839     1     4     6    13
 -0.0010007368     1     4     7    10
 -0.0014826724     1     4     7    13
 0.0005057628     1     4     8    10
 0.0002686655     1     4     8    13
 0.0003068057     1     4     9    10
 0.0006965619     1     4     9    13
 -0.1788660133     1     4    10     1
 -0.0110845263     1     4    10     2
 0.0031413259     1     4    10     3
 0.0014422218     1     4    10     5
 0.0025151921     1     4    10     6
 -0.0027932415     1     4    10     7
 0.0000189958     1     4    10     8
 -0.0018365374     1     4    10     9
 0.0004083259     1     4    10    11
 -0.0025267479     1     4    10    12
 -0.0004203142     1     4    10    14
 0.0006122123     1     4    11    10
 0.0008636054     1     4    11    13
 0.0000818887     1     4    12    10
 0.0003115963     1     4    12    13
 -0.2329272547     1     4    13     1
 -0.0149417987     1     4    13     2
 0.0045388453     1     4    13     3
 0.0011232047     1     4    13     5
 0.0024493720     1     4    13     6
 -0.0048338433     1     4    13     7
 -0.0001570820     1     4    13     8
 -0.0025132719     1     4    13     9
 -0.0006683117     1     4    13    11
 -0.0025415961     1     4    13    12
 -0.0024269176     1     4    13    14
 0.0002601197     1     4    14    10
 0.0000490950     1     4    14    13
 0.0424715917     1     5     2     1
 -0.0002408831     1     5     2     2
 -0.0004924799     1     5     2     3
 -0.0010181294     1     5     2     6
 -0.0002802178     1     5     2     7
 0.0003443317     1     5     2     8
 -0.0004322927     1     5     2     9
 0.0007000341     1     5     2    11
 0.0015677694     1     5     2    12
 -0.0036097101     1     5     2    14
 -0.0596646465     1     5     3     1
 -0.0034360198     1     5     3     2
 -0.0015533072     1     5     3     3
 0.0010896034     1     5     3     6
 -0.0009225044     1     5     3     7
 -0.0006754087     1     5     3     8
 -0.0006827826     1     5     3     9
 -0.0014625300     1     5     3    11
 0.0007061868     1     5     3    12
 0.0006669465     1     5     3    14
 -0.0032867054     1     5     4     4
 -0.0004279993     1     5     4    10
 -0.0020143296     1     5     4    13
 -0.6967099902     1     5     5     1
 -0.0239625033     1     5     5     2
 0.0065035965     1     5     5     3
 0.0016857429     1     5     5     6
 -0.0033348453     1     5     5     7
 0.0004763677     1     5     5     8
 -0.0037694101     1     5     5     9
 -0.0011280942     1     5     5    11
 -0.0025738737     1     5     5    12
 -0.0012845675     1     5     5    14
 0.3089728709     1     5     6     1
 0.0157291362     1     5     6     2
 -0.0048730868     1     5     6     3
 -0.0049777580     1     5     6     6
 0.0019500371     1     5     6     7
 0.0007897254     1     5     6     8
 0.0025133421     1     5     6     9
 0.0006283236     1     5     6    11
 0.0034046838     1     5     6    12
 -0.0011385451     1     5     6    14
 0.0360039721     1     5     7     1
 0.0012139177     1     5     7     2
 -0.0010759823     1     5     7     3
 -0.0003569153     1     5     7     6
 -0.0000039200     1     5     7     7
 0.0001643502     1     5     7     8
 0.0003606784     1     5     7     9
 -0.0008933790     1     5     7    11
 0.0000301633     1     5     7    12
 0.0009268272     1     5     7    14
 -0.0381801058     1     5     8     1
 -0.0028686286     1     5     8     2
 0.0009286521     1     5     8     3
 0.0014973154     1     5     8     6
 -0.0000741923     1     5     8     7
 -0.0016229820     1     5     8     8
 -0.0006081310     1     5     8     9
 0.0002483453     1     5     8    11
 -0.0011020614     1     5     8    12
 0.0005869563     1     5     8    14
 0.0364345498     1     5     9     1
 0.0018053474     1     5     9     2
 -0.0002137099     1     5     9     3
 -0.0004027300     1     5     9     6
 0.0006327732     1     5     9     7
 -0.0001157009     1     5     9     8
 -0.0007907288     1     5     9     9
 0.0007997767     1     5     9    11
 0.0015210103     1     5     9    12
 -0.0001024432     1     5     9    14
 -0.0014422218     1     5    10     4
 -0.0024906943     1     5    10    10
 -0.0003520823     1     5    10    13
 -0.0691003613     1     5    11     1
 -0.0042337081     1     5    11     2
 -0.0002171280     1     5    11     3
 0.0007966369     1     5    11     6
 -0.0016956855     1     5    11     7
 0.0000513096     1     5    11     8
 -0.0005934505     1     5    11     9
 -0.0009362443     1     5    11    11
 -0.0006383265     1     5    11    12
 -0.0015855026     1     5    11    14
 -0.0786276749     1     5    12     1
 -0.0055757990     1     5    12     2
 0.0016424897     1     5    12     3
 0.0017354989     1     5    12     6
 -0.0016194490     1     5    12     7
 -0.0004685226     1     5    12     8
 0.0001053143     1     5    12     9
 -0.0013237592     1     5    12    11
 -0.0017759527     1     5    12    12
 0.0002623148     1     5    12    14
 -0.0011232047     1     5    13     4
 0.0004777865     1     5    13    10
 -0.0007266991     1     5    13    13
 0.2129833567     1     5    14     1
 0.0134100662     1     5    14     2
 -0.0041806615     1     5    14     3
 -0.0033153802     1     5    14     6
 0.0033345383     1     5    14     7
 0.0003091812     1     5    14     8
 0.0025845971     1     5    14     9
 -0.0005723869     1     5    14    11
 0.0028976988     1     5    14    12
 0.0009645616     1     5    14    14
 0.0619015990     1     6     2     1
 -0.0007763260     1     6     2     2
 -0.0005787553     1     6     2     3
 0.0010181294     1     6     2     5
 -0.0001019062     1     6     2     7
 -0.0001247434     1     6     2     8
 0.0002261966     1     6     2     9
 -0.0005538568     1     6     2    11
 -0.0009254058     1     6     2    12
 0.0019833102     1     6     2    14
 -0.0505961460     1     6     3     1
 -0.0022327557     1     6     3     2
 -0.0031143594     1     6     3     3
 -0.0010896034     1     6     3     5
 -0.0011675209     1     6     3     7
 0.0003197094     1     6     3     8
 0.0003977542     1     6     3     9
 -0.0021180722     1     6     3    11
 -0.0007583135     1     6     3    12
 -0.0004540118     1     6     3    14
 -0.0052332446     1     6     4     4
 -0.0024288502     1     6     4    10
 -0.0018750227     1     6     4    13
 0.3089728709     1     6     5     1
 0.0179125526     1     6     5     2
 -0.0062337331     1     6     5     3
 -0.0016857429     1     6     5     5
 0.0023765926     1     6     5     7
 -0.0007468393     1     6     5     8
 0.0029914358     1     6     5     9
 -0.0001632444     1     6     5    11
 0.0017280677     1     6     5    12
 0.0022293485     1     6     5    14
 -0.5219385237     1     6     6     1
 -0.0150234298     1     6     6     2
 0.0036328151     1     6     6     3
 0.0049777580     1     6     6     5
 -0.0024532573     1     6     6     7
 0.0001592481     1     6     6     8
 -0.0026370518     1     6     6     9
 -0.0002111931     1     6     6    11
 -0.0011816545     1     6     6    12
 -0.0032906877     1     6     6    14
 -0.0196221354     1     6     7     1
 -0.0024881798     1     6     7     2
 -0.0006921393     1     6     7     3
 0.0003569153     1     6     7     5
 -0.0010846126     1     6     7     7
 -0.0001047572     1     6     7     8
 -0.0005073960     1     6     7     9
 -0.0007592443     1     6     7    11
 0.0002025602     1     6     7    12
 -0.0013374385     1     6     7    14
 0.0821220204     1     6     8     1
 0.0027621331     1     6     8     2
 -0.0006040072     1     6     8     3
 -0.0014973154     1     6     8     5
 0.0002958294     1     6     8     7
 0.0011007602     1     6     8     8
 0.0005923199     1     6     8     9
 -0.0002340337     1     6     8    11
 0.0003956027     1     6     8    12
 0.0007187643     1     6     8    14
 -0.0113701706     1     6     9     1
 -0.0016489458     1     6     9     2
 0.0008309434     1     6     9     3
 0.0004027300     1     6     9     5
 -0.0004774741     1     6     9     7
 0.0001030358     1     6     9     8
 0.0005911810     1     6     9     9
 -0.0006549413     1     6     9    11
 -0.0010321155     1     6     9    12
 -0.0003573224     1     6     9    14
 -0.0025151921     1     6    10     4
 0.0006931148     1     6    10    10
 -0.0015759349     1     6    10    13
 0.0167453120     1     6    11     1
 0.0010735925     1     6    11     2
 -0.0031818707     1     6    11     3
 -0.0007966369     1     6    11     5
 -0.0003823017     1     6    11     7
 -0.0001768798     1     6    11     8
 -0.0001253015     1     6    11     9
 -0.0023321899     1     6    11    11
 0.0002161828     1     6    11    12
 0.0011754729     1     6    11    14
 0.1128393613     1     6    12     1
 0.0056082649     1     6    12     2
 -0.0013730720     1     6    12     3
 -0.0017354989     1     6    12     5
 0.0016645329     1     6    12     7
 0.0000911678     1     6    12     8
 0.0002589579     1     6    12     9
 0.0006440626     1     6    12    11
 0.0008823010     1     6    12    12
 0.0014957440     1     6    12    14
 -0.0024493720     1     6    13     4
 -0.0017247978     1     6    13    10
 -0.0014235556     1     6    13    13
 -0.2069957116     1     6    14     1
 -0.0129513862     1     6    14     2
 0.0032255248     1     6    14     3
 0.0033153802     1     6    14     5
 -0.0033984548     1     6    14     7
 0.0002548090     1     6    14     8
 -0.0026328600     1     6    14     9
 0.0003834300     1     6    14    11
 -0.0011446554     1     6    14    12
 -0.0037131123     1     6    14    14
 -0.1057607357     1     7     2     1
 -0.0020183849     1     7     2     2
 -0.0006436065     1     7     2     3
 0.0002802178     1     7     2     5
 0.0001019062     1     7     2     6
 -0.0000278284     1     7     2     8
 0.0000299769     1     7     2     9
 0.0009112432     1     7     2    11
 -0.0003345412     1     7     2    12
 0.0002799993     1     7     2    14
 -0.1103758792     1     7     3     1
 -0.0092950636     1     7     3     2
 0.0053951583     1     7     3     3
 0.0009225044     1     7     3     5
 0.0011675209     1     7     3     6
 -0.0001336768     1     7     3     8
 0.0001565346     1     7     3     9
 0.0029751377     1     7     3    11
 -0.0010834149     1     7     3    12
 -0.0001482801     1     7     3    14
 0.0057905782     1     7     4     4
 0.0018080273     1     7     4    10
 0.0033938360     1     7     4    13
 0.0360039721     1     7     5     1
 0.0015855572     1     7     5     2
 -0.0002321496     1     7     5     3
 0.0033348453     1     7     5     5
 -0.0023765926     1     7     5     6
 0.0002447121     1     7     5     8
 -0.0002825361     1     7     5     9
 0.0008212742     1     7     5    11
 0.0016934063     1     7     5    12
 -0.0024644076     1     7     5    14
 -0.0196221354     1     7     6     1
 -0.0024074388     1     7     6     2
 0.0004411718     1     7     6     3
 -0.0019500371     1     7     6     5
 0.0024532573     1     7     6     6
 -0.0004028699     1     7     6     8
 -0.0000289083     1     7     6     9
 -0.0003753036     1     7     6    11
 -0.0014647496     1     7     6    12
 0.0020663625     1     7     6    14
 -0.3111996257     1     7     7     1
 -0.0025966497     1     7     7     2
 0.0040974500     1     7     7     3
 0.0000039200     1     7     7     5
 0.0010846126     1     7     7     6
 -0.0001899643     1     7     7     8
 -0.0000799177     1     7     7     9
 0.0016617886     1     7     7    11
 -0.0006594175     1     7     7    12
 0.0004497958     1     7     7    14
 0.0149476420     1     7     8     1
 0.0003596580     1     7     8     2
 0.0000869238     1     7     8     3
 0.0000741923     1     7     8     5
 -0.0002958294     1     7     8     6
 0.0003621421     1     7     8     8
 -0.0001126353     1     7     8     9
 0.0002018864     1     7     8    11
 0.0002264073     1     7     8    12
 -0.0003281459     1     7     8    14
 -0.0423059704     1     7     9     1
 -0.0005734981     1     7     9     2
 0.0009542323     1     7     9     3
 -0.0006327732     1     7     9     5
 0.0004774741     1     7     9     6
 -0.0002126338     1     7     9     8
 0.0001749068     1     7     9     9
 -0.0008319013     1     7     9    11
 -0.0001985645     1     7     9    12
 0.0001460196     1     7     9    14
 0.0027932415     1     7    10     4
 0.0014715082     1     7    10    10
 0.0013825993     1     7    10    13
 -0.1132775420     1     7    11     1
 -0.0045419751     1     7    11     2
 0.0059299525     1     7    11     3
 0.0016956855     1     7    11     5
 0.0003823017     1     7    11     6
 0.0000623070     1     7    11     8
 -0.0011920000     1     7    11     9
 0.0025728988     1     7    11    11
 -0.0012019891     1     7    11    12
 -0.0007723809     1     7    11    14
 -0.0021980685     1     7    12     1
 0.0011990887     1     7    12     2
 -0.0009421933     1     7    12     3
 0.0016194490     1     7    12     5
 -0.0016645329     1     7    12     6
 0.0003086673     1     7    12     8
 0.0000463174     1     7    12     9
 -0.0007424086     1     7    12    11
 0.0009825581     1     7    12    12
 -0.0009412400     1     7    12    14
 0.0048338433     1     7    13     4
 0.0014110021     1     7    13    10
 0.0017767763     1     7    13    13
 -0.0664551076     1     7    14     1
 -0.0023830452     1     7    14     2
 0.0011230703     1     7    14     3
 -0.0033345383     1     7    14     5
 0.0033984548     1     7    14     6
 -0.0006633023     1     7    14     8
 -0.0001630547     1     7    14     9
 -0.0004882079     1     7    14    11
 -0.0014314078     1     7    14    12
 0.0027520531     1     7    14    14
 -0.0079810246     1     8     2     1
 0.0000361619     1     8     2     2
 0.0000787381     1     8     2     3
 -0.0003443317     1     8     2     5
 0.0001247434     1     8     2     6
 0.0000278284     1     8     2     7
 -0.0000314890     1     8     2     9
 0.0001154101     1     8     2    11
 0.0001186608     1     8     2    12
 -0.0002698866     1     8     2    14
 -0.0008283534     1     8     3     1
 0.0000085436     1     8     3     2
 0.0006559537     1     8     3     3
 0.0006754087     1     8     3     5
 -0.0003197094     1     8     3     6
 0.0001336768     1     8     3     7
 -0.0001203751     1     8     3     9
 0.0004987679     1     8     3    11
 0.0002717822     1     8     3    12
 -0.0002871182     1     8     3    14
 0.0010742052     1     8     4     4
 0.0004911597     1     8     4    10
 0.0004276261     1     8     4    13
 -0.0381801058     1     8     5     1
 -0.0034558291     1     8     5     2
 0.0016659992     1     8     5     3
 -0.0004763677     1     8     5     5
 0.0007468393     1     8     5     6
 -0.0002447121     1     8     5     7
 -0.0005049589     1     8     5     9
 0.0001986028     1     8     5    11
 -0.0006587868     1     8     5    12
 0.0002827841     1     8     5    14
 0.0821220204     1     8     6     1
 0.0029110164     1     8     6     2
 -0.0009217571     1     8     6     3
 -0.0007897254     1     8     6     5
 -0.0001592481     1     8     6     6
 0.0004028699     1     8     6     7
 0.0004910560     1     8     6     9
 -0.0000575332     1     8     6    11
 0.0003066945     1     8     6    12
 0.0004640249     1     8     6    14
 0.0149476420     1     8     7     1
 0.0003902185     1     8     7     2
 0.0002145616     1     8     7     3
 -0.0001643502     1     8     7     5
 0.0001047572     1     8     7     6
 0.0001899643     1     8     7     7
 0.0001000347     1     8     7     9
 0.0001402305     1     8     7    11
 -0.0000816706     1     8     7    12
 0.0003340402     1     8     7    14
 -0.2195104665     1     8     8     1
 -0.0006700203     1     8     8     2
 -0.0004104808     1     8     8     3
 0.0016229820     1     8     8     5
 -0.0011007602     1     8     8     6
 -0.0003621421     1     8     8     7
 -0.0002772152     1     8     8     9
 -0.0000937083     1     8     8    11
 0.0004141103     1     8     8    12
 -0.0012636999     1     8     8    14
 0.0073400831     1     8     9     1
 0.0003998737     1     8     9     2
 0.0003320186     1     8     9     3
 0.0001157009     1     8     9     5
 -0.0001030358     1     8     9     6
 0.0002126338     1     8     9     7
 -0.0001048175     1     8     9     9