&FCI NORB=  7,NELEC= 10,MS2=0,
 ORBSYM=1,1,1,1,1,1,1
 ISYM=1,
&END
 0.9821459514     1     1     2     2
 0.0710536614     1     1     2     4
 -0.1498724420     1     1     2     6
 0.8584339869     1     1     3     3
 -0.1818324665     1     1     3     7
 0.0710536614     1     1     4     2
 0.9516310831     1     1     4     4
 0.0814451461     1     1     4     6
 1.0041757601     1     1     5     5
 -0.1498724420     1     1     6     2
 0.0814451461     1     1     6     4
 0.3997817295     1     1     6     6
 -0.1818324665     1     1     7     3
 0.3930204535     1     1     7     7
 -0.9821459514     1     2     2     1
 -0.0069350873     1     2     2     4
 -0.0016779611     1     2     2     6
 0.0300641588     1     2     3     3
 -0.0147851221     1     2     3     7
 -0.0710536614     1     2     4     1
 0.0354626823     1     2     4     4
 0.0086519134     1     2     4     6
 0.0408018034     1     2     5     5
 0.1498724420     1     2     6     1
 0.0079673257     1     2     6     4
 0.0027891321     1     2     6     6
 -0.0105837519     1     2     7     3
 0.0071976812     1     2     7     7
 -0.0032895017     1     3     2     7
 -0.8584339869     1     3     3     1
 -0.0300641588     1     3     3     2
 -0.0104392433     1     3     3     4
 0.0047741034     1     3     3     6
 0.0016703999     1     3     4     7
 -0.0025096196     1     3     6     7
 0.1818324665     1     3     7     1
 0.0105837519     1     3     7     2
 0.0039019042     1     3     7     4
 -0.0056815313     1     3     7     6
 -0.0710536614     1     4     2     1
 0.0069350873     1     4     2     2
 0.0001107068     1     4     2     6
 0.0104392433     1     4     3     3
 -0.0023680130     1     4     3     7
 -0.9516310831     1     4     4     1
 -0.0354626823     1     4     4     2
 0.0106250964     1     4     4     6
 0.0138612439     1     4     5     5
 -0.0814451461     1     4     6     1
 -0.0079673257     1     4     6     2
 0.0054257188     1     4     6     6
 -0.0039019042     1     4     7     3
 0.0037964218     1     4     7     7
 -1.0041757601     1     5     5     1
 -0.0408018034     1     5     5     2
 -0.0138612439     1     5     5     4
 0.0100393012     1     5     5     6
 0.1498724420     1     6     2     1
 0.0016779611     1     6     2     2
 -0.0001107068     1     6     2     4
 -0.0047741034     1     6     3     3
 0.0030186902     1     6     3     7
 -0.0814451461     1     6     4     1
 -0.0086519134     1     6     4     2
 -0.0106250964     1     6     4     4
 -0.0100393012     1     6     5     5
 -0.3997817295     1     6     6     1
 -0.0027891321     1     6     6     2
 -0.0054257188     1     6     6     4
 0.0056815313     1     6     7     3
 -0.0028590109     1     6     7     7
 0.0032895017     1     7     2     3
 0.1818324665     1     7     3     1
 0.0147851221     1     7     3     2
 0.0023680130     1     7     3     4
 -0.0030186902     1     7     3     6
 -0.0016703999     1     7     4     3
 0.0025096196     1     7     6     3
 -0.3930204535     1     7     7     1
 -0.0071976812     1     7     7     2
 -0.0037964218     1     7     7     4
 0.0028590109     1     7     7     6
 -0.9821459514     2     1     1     2
 -0.0710536614     2     1     1     4
 0.1498724420     2     1     1     6
 0.0300641588     2     1     3     3
 -0.0105837519     2     1     3     7
 -0.0069350873     2     1     4     2
 0.0354626823     2     1     4     4
 0.0079673257     2     1     4     6
 0.0408018034     2     1     5     5
 -0.0016779611     2     1     6     2
 0.0086519134     2     1     6     4
 0.0027891321     2     1     6     6
 -0.0147851221     2     1     7     3
 0.0071976812     2     1     7     7
 0.9821459514     2     2     1     1
 0.0069350873     2     2     1     4
 0.0016779611     2     2     1     6
 0.5249499387     2     2     3     3
 -0.0717683500     2     2     3     7
 0.0069350873     2     2     4     1
 0.5526265434     2     2     4     4
 0.0336428132     2     2     4     6
 0.5831520635     2     2     5     5
 0.0016779611     2     2     6     1
 0.0336428132     2     2     6     4
 0.3352878374     2     2     6     6
 -0.0717683500     2     2     7     3
 0.3281916469     2     2     7     7
 0.0032895017     2     3     1     7
 -0.0300641588     2     3     3     1
 -0.5249499387     2     3     3     2
 -0.0029621111     2     3     3     4
 0.0681600658     2     3     3     6
 -0.0134980841     2     3     4     7
 0.0402801431     2     3     6     7
 0.0147851221     2     3     7     1
 0.0717683500     2     3     7     2
 -0.0019070231     2     3     7     4
 0.0233589026     2     3     7     6
 0.0710536614     2     4     1     1
 -0.0069350873     2     4     1     2
 -0.0001107068     2     4     1     6
 0.0029621111     2     4     3     3
 -0.0117345930     2     4     3     7
 -0.0354626823     2     4     4     1
 -0.5526265434     2     4     4     2
 0.0681601673     2     4     4     6
 0.0064562032     2     4     5     5
 -0.0086519134     2     4     6     1
 -0.0336428132     2     4     6     2
 -0.0122560181     2     4     6     6
 0.0019070231     2     4     7     3
 -0.0139905574     2     4     7     7
 -0.0408018034     2     5     5     1
 -0.5831520635     2     5     5     2
 -0.0064562032     2     5     5     4
 0.0662889309     2     5     5     6
 -0.1498724420     2     6     1     1
 -0.0016779611     2     6     1     2
 0.0001107068     2     6     1     4
 -0.0681600658     2     6     3     3
 0.0157551503     2     6     3     7
 -0.0079673257     2     6     4     1
 -0.0336428132     2     6     4     2
 -0.0681601673     2     6     4     4
 -0.0662889309     2     6     5     5
 -0.0027891321     2     6     6     1
 -0.3352878374     2     6     6     2
 0.0122560181     2     6     6     4
 -0.0233589026     2     6     7     3
 -0.0138012813     2     6     7     7
 -0.0032895017     2     7     1     3
 0.0105837519     2     7     3     1
 0.0717683500     2     7     3     2
 0.0117345930     2     7     3     4
 -0.0157551503     2     7     3     6
 0.0134980841     2     7     4     3
 -0.0402801431     2     7     6     3
 -0.0071976812     2     7     7     1
 -0.3281916469     2     7     7     2
 0.0139905574     2     7     7     4
 0.0138012813     2     7     7     6
 -0.8584339869     3     1     1     3
 0.1818324665     3     1     1     7
 -0.0300641588     3     1     2     3
 0.0105837519     3     1     2     7
 -0.0104392433     3     1     4     3
 0.0039019042     3     1     4     7
 0.0047741034     3     1     6     3
 -0.0056815313     3     1     6     7
 -0.0032895017     3     1     7     2
 0.0016703999     3     1     7     4
 -0.0025096196     3     1     7     6
 -0.0300641588     3     2     1     3
 0.0147851221     3     2     1     7
 -0.5249499387     3     2     2     3
 0.0717683500     3     2     2     7
 -0.0029621111     3     2     4     3
 -0.0019070231     3     2     4     7
 0.0681600658     3     2     6     3
 0.0233589026     3     2     6     7
 0.0032895017     3     2     7     1
 -0.0134980841     3     2     7     4
 0.0402801431     3     2     7     6
 0.8584339869     3     3     1     1
 0.0300641588     3     3     1     2
 0.0104392433     3     3     1     4
 -0.0047741034     3     3     1     6
 0.0300641588     3     3     2     1
 0.5249499387     3     3     2     2
 0.0029621111     3     3     2     4
 -0.0681600658     3     3     2     6
 0.0104392433     3     3     4     1
 0.0029621111     3     3     4     2
 0.5614345913     3     3     4     4
 0.0363544554     3     3     4     6
 0.5874822878     3     3     5     5
 -0.0047741034     3     3     6     1
 -0.0681600658     3     3     6     2
 0.0363544554     3     3     6     4
 0.3388615505     3     3     6     6
 0.3056834683     3     3     7     7
 -0.0104392433     3     4     1     3
 0.0023680130     3     4     1     7
 -0.0029621111     3     4     2     3
 0.0117345930     3     4     2     7
 -0.5614345913     3     4     4     3
 0.0911261344     3     4     4     7
 -0.0363544554     3     4     6     3
 0.0011773892     3     4     6     7
 -0.0016703999     3     4     7     1
 0.0134980841     3     4     7     2
 -0.0095073313     3     4     7     6
 -0.5874822878     3     5     5     3
 0.0938743380     3     5     5     7
 0.0047741034     3     6     1     3
 -0.0030186902     3     6     1     7
 0.0681600658     3     6     2     3
 -0.0157551503     3     6     2     7
 -0.0363544554     3     6     4     3
 0.0097232576     3     6     4     7
 -0.3388615505     3     6     6     3
 0.0341432484     3     6     6     7
 0.0025096196     3     6     7     1
 -0.0402801431     3     6     7     2
 0.0095073313     3     6     7     4
 -0.1818324665     3     7     1     1
 -0.0147851221     3     7     1     2
 -0.0023680130     3     7     1     4
 0.0030186902     3     7     1     6
 -0.0105837519     3     7     2     1
 -0.0717683500     3     7     2     2
 -0.0117345930     3     7     2     4
 0.0157551503     3     7     2     6
 -0.0039019042     3     7     4     1
 0.0019070231     3     7     4     2
 -0.0911261344     3     7     4     4
 -0.0097232576     3     7     4     6
 -0.0938743380     3     7     5     5
 0.0056815313     3     7     6     1
 -0.0233589026     3     7     6     2
 -0.0011773892     3     7     6     4
 -0.0341432484     3     7     6     6
 -0.3056834683     3     7     7     3
 -0.0710536614     4     1     1     2
 -0.9516310831     4     1     1     4
 -0.0814451461     4     1     1     6
 0.0069350873     4     1     2     2
 -0.0354626823     4     1     2     4
 -0.0079673257     4     1     2     6
 0.0104392433     4     1     3     3
 -0.0039019042     4     1     3     7
 0.0138612439     4     1     5     5
 0.0001107068     4     1     6     2
 0.0106250964     4     1     6     4
 0.0054257188     4     1     6     6
 -0.0023680130     4     1     7     3
 0.0037964218     4     1     7     7
 0.0710536614     4     2     1     1
 -0.0354626823     4     2     1     4
 -0.0086519134     4     2     1     6
 -0.0069350873     4     2     2     1
 -0.5526265434     4     2     2     4
 -0.0336428132     4     2     2     6
 0.0029621111     4     2     3     3
 0.0019070231     4     2     3     7
 0.0064562032     4     2     5     5
 -0.0001107068     4     2     6     1
 0.0681601673     4     2     6     4
 -0.0122560181     4     2     6     6
 -0.0117345930     4     2     7     3
 -0.0139905574     4     2     7     7
 -0.0016703999     4     3     1     7
 0.0134980841     4     3     2     7
 -0.0104392433     4     3     3     1
 -0.0029621111     4     3     3     2
 -0.5614345913     4     3     3     4
 -0.0363544554     4     3     3     6
 -0.0095073313     4     3     6     7
 0.0023680130     4     3     7     1
 0.0117345930     4     3     7     2
 0.0911261344     4     3     7     4
 0.0011773892     4     3     7     6
 0.9516310831     4     4     1     1
 0.0354626823     4     4     1     2
 -0.0106250964     4     4     1     6
 0.0354626823     4     4     2     1
 0.5526265434     4     4     2     2
 -0.0681601673     4     4     2     6
 0.5614345913     4     4     3     3
 -0.0911261344     4     4     3     7
 0.6152128937     4     4     5     5
 -0.0106250964     4     4     6     1
 -0.0681601673     4     4     6     2
 0.3224025375     4     4     6     6
 -0.0911261344     4     4     7     3
 0.3155216945     4     4     7     7
 -0.0138612439     4     5     5     1
 -0.0064562032     4     5     5     2
 -0.6152128937     4     5     5     4
 -0.0446249038     4     5     5     6
 0.0814451461     4     6     1     1
 0.0086519134     4     6     1     2
 0.0106250964     4     6     1     4
 0.0079673257     4     6     2     1
 0.0336428132     4     6     2     2
 0.0681601673     4     6     2     4
 0.0363544554     4     6     3     3
 -0.0097232576     4     6     3     7
 0.0446249038     4     6     5     5
 -0.0054257188     4     6     6     1
 0.0122560181     4     6     6     2
 -0.3224025375     4     6     6     4
 -0.0011773892     4     6     7     3
 0.0142507984     4     6     7     7
 0.0016703999     4     7     1     3
 -0.0134980841     4     7     2     3
 0.0039019042     4     7     3     1
 -0.0019070231     4     7     3     2
 0.0911261344     4     7     3     4
 0.0097232576     4     7     3     6
 0.0095073313     4     7     6     3
 -0.0037964218     4     7     7     1
 0.0139905574     4     7     7     2
 -0.3155216945     4     7     7     4
 -0.0142507984     4     7     7     6
 -1.0041757601     5     1     1     5
 -0.0408018034     5     1     2     5
 -0.0138612439     5     1     4     5
 0.0100393012     5     1     6     5
 -0.0408018034     5     2     1     5
 -0.5831520635     5     2     2     5
 -0.0064562032     5     2     4     5
 0.0662889309     5     2     6     5
 -0.5874822878     5     3     3     5
 0.0938743380     5     3     7     5
 -0.0138612439     5     4     1     5
 -0.0064562032     5     4     2     5
 -0.6152128937     5     4     4     5
 -0.0446249038     5     4     6     5
 1.0041757601     5     5     1     1
 0.0408018034     5     5     1     2
 0.0138612439     5     5     1     4
 -0.0100393012     5     5     1     6
 0.0408018034     5     5     2     1
 0.5831520635     5     5     2     2
 0.0064562032     5     5     2     4
 -0.0662889309     5     5     2     6
 0.5874822878     5     5     3     3
 -0.0938743380     5     5     3     7
 0.0138612439     5     5     4     1
 0.0064562032     5     5     4     2
 0.6152128937     5     5     4     4
 0.0446249038     5     5     4     6
 -0.0100393012     5     5     6     1
 -0.0662889309     5     5     6     2
 0.0446249038     5     5     6     4
 0.3362271587     5     5     6     6
 -0.0938743380     5     5     7     3
 0.3233547391     5     5     7     7
 0.0100393012     5     6     1     5
 0.0662889309     5     6     2     5
 -0.0446249038     5     6     4     5
 -0.3362271587     5     6     6     5
 0.0938743380     5     7     3     5
 -0.3233547391     5     7     7     5
 0.1498724420     6     1     1     2
 -0.0814451461     6     1     1     4
 -0.3997817295     6     1     1     6
 0.0016779611     6     1     2     2
 -0.0086519134     6     1     2     4
 -0.0027891321     6     1     2     6
 -0.0047741034     6     1     3     3
 0.0056815313     6     1     3     7
 -0.0001107068     6     1     4     2
 -0.0106250964     6     1     4     4
 -0.0054257188     6     1     4     6
 -0.0100393012     6     1     5     5
 0.0030186902     6     1     7     3
 -0.0028590109     6     1     7     7
 -0.1498724420     6     2     1     1
 -0.0079673257     6     2     1     4
 -0.0027891321     6     2     1     6
 -0.0016779611     6     2     2     1
 -0.0336428132     6     2     2     4
 -0.3352878374     6     2     2     6
 -0.0681600658     6     2     3     3
 -0.0233589026     6     2     3     7
 0.0001107068     6     2     4     1
 -0.0681601673     6     2     4     4
 0.0122560181     6     2     4     6
 -0.0662889309     6     2     5     5
 0.0157551503     6     2     7     3
 -0.0138012813     6     2     7     7
 0.0025096196     6     3     1     7
 -0.0402801431     6     3     2     7
 0.0047741034     6     3     3     1
 0.0681600658     6     3     3     2
 -0.0363544554     6     3     3     4
 -0.3388615505     6     3     3     6
 0.0095073313     6     3     4     7
 -0.0030186902     6     3     7     1
 -0.0157551503     6     3     7     2
 0.0097232576     6     3     7     4
 0.0341432484     6     3     7     6
 0.0814451461     6     4     1     1
 0.0079673257     6     4     1     2
 -0.0054257188     6     4     1     6
 0.0086519134     6     4     2     1
 0.0336428132     6     4     2     2
 0.0122560181     6     4     2     6
 0.0363544554     6     4     3     3
 -0.0011773892     6     4     3     7
 0.0106250964     6     4     4     1
 0.0681601673     6     4     4     2
 -0.3224025375     6     4     4     6
 0.0446249038     6     4     5     5
 -0.0097232576     6     4     7     3
 0.0142507984     6     4     7     7
 0.0100393012     6     5     5     1
 0.0662889309     6     5     5     2
 -0.0446249038     6     5     5     4
 -0.3362271587     6     5     5     6
 0.3997817295     6     6     1     1
 0.0027891321     6     6     1     2
 0.0054257188     6     6     1     4
 0.0027891321     6     6     2     1
 0.3352878374     6     6     2     2
 -0.0122560181     6     6     2     4
 0.3388615505     6     6     3     3
 -0.0341432484     6     6     3     7
 0.0054257188     6     6     4     1
 -0.0122560181     6     6     4     2
 0.3224025375     6     6     4     4
 0.3362271587     6     6     5     5
 -0.0341432484     6     6     7     3
 0.2155761214     6     6     7     7
 -0.0025096196     6     7     1     3
 0.0402801431     6     7     2     3
 -0.0056815313     6     7     3     1
 0.0233589026     6     7     3     2
 0.0011773892     6     7     3     4
 0.0341432484     6     7     3     6
 -0.0095073313     6     7     4     3
 0.0028590109     6     7     7     1
 0.0138012813     6     7     7     2
 -0.0142507984     6     7     7     4
 -0.2155761214     6     7     7     6
 0.1818324665     7     1     1     3
 -0.3930204535     7     1     1     7
 0.0147851221     7     1     2     3
 -0.0071976812     7     1     2     7
 0.0032895017     7     1     3     2
 -0.0016703999     7     1     3     4
 0.0025096196     7     1     3     6
 0.0023680130     7     1     4     3
 -0.0037964218     7     1     4     7
 -0.0030186902     7     1     6     3
 0.0028590109     7     1     6     7
 0.0105837519     7     2     1     3
 -0.0071976812     7     2     1     7
 0.0717683500     7     2     2     3
 -0.3281916469     7     2     2     7
 -0.0032895017     7     2     3     1
 0.0134980841     7     2     3     4
 -0.0402801431     7     2     3     6
 0.0117345930     7     2     4     3
 0.0139905574     7     2     4     7
 -0.0157551503     7     2     6     3
 0.0138012813     7     2     6     7
 -0.1818324665     7     3     1     1
 -0.0105837519     7     3     1     2
 -0.0039019042     7     3     1     4
 0.0056815313     7     3     1     6
 -0.0147851221     7     3     2     1
 -0.0717683500     7     3     2     2
 0.0019070231     7     3     2     4
 -0.0233589026     7     3     2     6
 -0.3056834683     7     3     3     7
 -0.0023680130     7     3     4     1
 -0.0117345930     7     3     4     2
 -0.0911261344     7     3     4     4
 -0.0011773892     7     3     4     6
 -0.0938743380     7     3     5     5
 0.0030186902     7     3     6     1
 0.0157551503     7     3     6     2
 -0.0097232576     7     3     6     4
 -0.0341432484     7     3     6     6
 0.0039019042     7     4     1     3
 -0.0037964218     7     4     1     7
 -0.0019070231     7     4     2     3
 0.0139905574     7     4     2     7
 0.0016703999     7     4     3     1
 -0.0134980841     7     4     3     2
 0.0095073313     7     4     3     6
 0.0911261344     7     4     4     3
 -0.3155216945     7     4     4     7
 0.0097232576     7     4     6     3
 -0.0142507984     7     4     6     7
 0.0938743380     7     5     5     3
 -0.3233547391     7     5     5     7
 -0.0056815313     7     6     1     3
 0.0028590109     7     6     1     7
 0.0233589026     7     6     2     3
 0.0138012813     7     6     2     7
 -0.0025096196     7     6     3     1
 0.0402801431     7     6     3     2
 -0.0095073313     7     6     3     4
 0.0011773892     7     6     4     3
 -0.0142507984     7     6     4     7
 0.0341432484     7     6     6     3
 -0.2155761214     7     6     6     7
 0.3930204535     7     7     1     1
 0.0071976812     7     7     1     2
 0.0037964218     7     7     1     4
 -0.0028590109     7     7     1     6
 0.0071976812     7     7     2     1
 0.3281916469     7     7     2     2
 -0.0139905574     7     7     2     4
 -0.0138012813     7     7     2     6
 0.3056834683     7     7     3     3
 0.0037964218     7     7     4     1
 -0.0139905574     7     7     4     2
 0.3155216945     7     7     4     4
 0.0142507984     7     7     4     6
 0.3233547391     7     7     5     5
 -0.0028590109     7     7     6     1
 -0.0138012813     7     7     6     2
 0.0142507984     7     7     6     4
 0.2155761214     7     7     6     6
0.0 0 0 0 0
 0.9821459514     1     1     2     2
 0.0710536614     1     1     2     4
 -0.1498724420     1     1     2     6
 0.8584339869     1     1     3     3
 -0.1818324665     1     1     3     7
 0.0710536614     1     1     4     2
 0.9516310831     1     1     4     4
 0.0814451461     1     1     4     6
 1.0041757601     1     1     5     5
 -0.1498724420     1     1     6     2
 0.0814451461     1     1     6     4
 0.3997817295     1     1     6     6
 -0.1818324665     1     1     7     3
 0.3930204535     1     1     7     7
 -0.9821459514     1     2     2     1
 -0.0069350873     1     2     2     4
 -0.0016779611     1     2     2     6
 0.0300641588     1     2     3     3
 -0.0147851221     1     2     3     7
 -0.0710536614     1     2     4     1
 0.0354626823     1     2     4     4
 0.0086519134     1     2     4     6
 0.0408018034     1     2     5     5
 0.1498724420     1     2     6     1
 0.0079673257     1     2     6     4
 0.0027891321     1     2     6     6
 -0.0105837519     1     2     7     3
 0.0071976812     1     2     7     7
 -0.0032895017     1     3     2     7
 -0.8584339869     1     3     3     1
 -0.0300641588     1     3     3     2
 -0.0104392433     1     3     3     4
 0.0047741034     1     3     3     6
 0.0016703999     1     3     4     7
 -0.0025096196     1     3     6     7
 0.1818324665     1     3     7     1
 0.0105837519     1     3     7     2
 0.0039019042     1     3     7     4
 -0.0056815313     1     3     7     6
 -0.0710536614     1     4     2     1
 0.0069350873     1     4     2     2
 0.0001107068     1     4     2     6
 0.0104392433     1     4     3     3
 -0.0023680130     1     4     3     7
 -0.9516310831     1     4     4     1
 -0.0354626823     1     4     4     2
 0.0106250964     1     4     4     6
 0.0138612439     1     4     5     5
 -0.0814451461     1     4     6     1
 -0.0079673257     1     4     6     2
 0.0054257188     1     4     6     6
 -0.0039019042     1     4     7     3
 0.0037964218     1     4     7     7
 -1.0041757601     1     5     5     1
 -0.0408018034     1     5     5     2
 -0.0138612439     1     5     5     4
 0.0100393012     1     5     5     6
 0.1498724420     1     6     2     1
 0.0016779611     1     6     2     2
 -0.0001107068     1     6     2     4
 -0.0047741034     1     6     3     3
 0.0030186902     1     6     3     7
 -0.0814451461     1     6     4     1
 -0.0086519134     1     6     4     2
 -0.0106250964     1     6     4     4
 -0.0100393012     1     6     5     5
 -0.3997817295     1     6     6     1
 -0.0027891321     1     6     6     2
 -0.0054257188     1     6     6     4
 0.0056815313     1     6     7     3
 -0.0028590109     1     6     7     7
 0.0032895017     1     7     2     3
 0.1818324665     1     7     3     1
 0.0147851221     1     7     3     2
 0.0023680130     1     7     3     4
 -0.0030186902     1     7     3     6
 -0.0016703999     1     7     4     3
 0.0025096196     1     7     6     3
 -0.3930204535     1     7     7     1
 -0.0071976812     1     7     7     2
 -0.0037964218     1     7     7     4
 0.0028590109     1     7     7     6
 -0.9821459514     2     1     1     2
 -0.0710536614     2     1     1     4
 0.1498724420     2     1     1     6
 0.0300641588     2     1     3     3
 -0.0105837519     2     1     3     7
 -0.0069350873     2     1     4     2
 0.0354626823     2     1     4     4
 0.0079673257     2     1     4     6
 0.0408018034     2     1     5     5
 -0.0016779611     2     1     6     2
 0.0086519134     2     1     6     4
 0.0027891321     2     1     6     6
 -0.0147851221     2     1     7     3
 0.0071976812     2     1     7     7
 0.9821459514     2     2     1     1
 0.0069350873     2     2     1     4
 0.0016779611     2     2     1     6
 0.5249499387     2     2     3     3
 -0.0717683500     2     2     3     7
 0.0069350873     2     2     4     1
 0.5526265434     2     2     4     4
 0.0336428132     2     2     4     6
 0.5831520635     2     2     5     5
 0.0016779611     2     2     6     1
 0.0336428132     2     2     6     4
 0.3352878374     2     2     6     6
 -0.0717683500     2     2     7     3
 0.3281916469     2     2     7     7
 0.0032895017     2     3     1     7
 -0.0300641588     2     3     3     1
 -0.5249499387     2     3     3     2
 -0.0029621111     2     3     3     4
 0.0681600658     2     3     3     6
 -0.0134980841     2     3     4     7
 0.0402801431     2     3     6     7
 0.0147851221     2     3     7     1
 0.0717683500     2     3     7     2
 -0.0019070231     2     3     7     4
 0.0233589026     2     3     7     6
 0.0710536614     2     4     1     1
 -0.0069350873     2     4     1     2
 -0.0001107068     2     4     1     6
 0.0029621111     2     4     3     3
 -0.0117345930     2     4     3     7
 -0.0354626823     2     4     4     1
 -0.5526265434     2     4     4     2
 0.0681601673     2     4     4     6
 0.0064562032     2     4     5     5
 -0.0086519134     2     4     6     1
 -0.0336428132     2     4     6     2
 -0.0122560181     2     4     6     6
 0.0019070231     2     4     7     3
 -0.0139905574     2     4     7     7
 -0.0408018034     2     5     5     1
 -0.5831520635     2     5     5     2
 -0.0064562032     2     5     5     4
 0.0662889309     2     5     5     6
 -0.1498724420     2     6     1     1
 -0.0016779611     2     6     1     2
 0.0001107068     2     6     1     4
 -0.0681600658     2     6     3     3
 0.0157551503     2     6     3     7
 -0.0079673257     2     6     4     1
 -0.0336428132     2     6     4     2
 -0.0681601673     2     6     4     4
 -0.0662889309     2     6     5     5
 -0.0027891321     2     6     6     1
 -0.3352878374     2     6     6     2
 0.0122560181     2     6     6     4
 -0.0233589026     2     6     7     3
 -0.0138012813     2     6     7     7
 -0.0032895017     2     7     1     3
 0.0105837519     2     7     3     1
 0.0717683500     2     7     3     2
 0.0117345930     2     7     3     4
 -0.0157551503     2     7     3     6
 0.0134980841     2     7     4     3
 -0.0402801431     2     7     6     3
 -0.0071976812     2     7     7     1
 -0.3281916469     2     7     7     2
 0.0139905574     2     7     7     4
 0.0138012813     2     7     7     6
 -0.8584339869     3     1     1     3
 0.1818324665     3     1     1     7
 -0.0300641588     3     1     2     3
 0.0105837519     3     1     2     7
 -0.0104392433     3     1     4     3
 0.0039019042     3     1     4     7
 0.0047741034     3     1     6     3
 -0.0056815313     3     1     6     7
 -0.0032895017     3     1     7     2
 0.0016703999     3     1     7     4
 -0.0025096196     3     1     7     6
 -0.0300641588     3     2     1     3
 0.0147851221     3     2     1     7
 -0.5249499387     3     2     2     3
 0.0717683500     3     2     2     7
 -0.0029621111     3     2     4     3
 -0.0019070231     3     2     4     7
 0.0681600658     3     2     6     3
 0.0233589026     3     2     6     7
 0.0032895017     3     2     7     1
 -0.0134980841     3     2     7     4
 0.0402801431     3     2     7     6
 0.8584339869     3     3     1     1
 0.0300641588     3     3     1     2
 0.0104392433     3     3     1     4
 -0.0047741034     3     3     1     6
 0.0300641588     3     3     2     1
 0.5249499387     3     3     2     2
 0.0029621111     3     3     2     4
 -0.0681600658     3     3     2     6
 0.0104392433     3     3     4     1
 0.0029621111     3     3     4     2
 0.5614345913     3     3     4     4
 0.0363544554     3     3     4     6
 0.5874822878     3     3     5     5
 -0.0047741034     3     3     6     1
 -0.0681600658     3     3     6     2
 0.0363544554     3     3     6     4
 0.3388615505     3     3     6     6
 0.3056834683     3     3     7     7
 -0.0104392433     3     4     1     3
 0.0023680130     3     4     1     7
 -0.0029621111     3     4     2     3
 0.0117345930     3     4     2     7
 -0.5614345913     3     4     4     3
 0.0911261344     3     4     4     7
 -0.0363544554     3     4     6     3
 0.0011773892     3     4     6     7
 -0.0016703999     3     4     7     1
 0.0134980841     3     4     7     2
 -0.0095073313     3     4     7     6
 -0.5874822878     3     5     5     3
 0.0938743380     3     5     5     7
 0.0047741034     3     6     1     3
 -0.0030186902     3     6     1     7
 0.0681600658     3     6     2     3
 -0.0157551503     3     6     2     7
 -0.0363544554     3     6     4     3
 0.0097232576     3     6     4     7
 -0.3388615505     3     6     6     3
 0.0341432484     3     6     6     7
 0.0025096196     3     6     7     1
 -0.0402801431     3     6     7     2
 0.0095073313     3     6     7     4
 -0.1818324665     3     7     1     1
 -0.0147851221     3     7     1     2
 -0.0023680130     3     7     1     4
 0.0030186902     3     7     1     6
 -0.0105837519     3     7     2     1
 -0.0717683500     3     7     2     2
 -0.0117345930     3     7     2     4
 0.0157551503     3     7     2     6
 -0.0039019042     3     7     4     1
 0.0019070231     3     7     4     2
 -0.0911261344     3     7     4     4
 -0.0097232576     3     7     4     6
 -0.0938743380     3     7     5     5
 0.0056815313     3     7     6     1
 -0.0233589026     3     7     6     2
 -0.0011773892     3     7     6     4
 -0.0341432484     3     7     6     6