&FCI NORB=  7,NELEC= 10,MS2=0,
 ORBSYM=1,1,1,1,1,1,1
 ISYM=1,
&END
 0.9848467315     1     1     2     2
 -0.0669381116     1     1     2     4
 -0.1110294729     1     1     2     6
 0.8715713616     1     1     3     3
 -0.1247279801     1     1     3     7
 -0.0669381116     1     1     4     2
 0.9494693156     1     1     4     4
 -0.0544409447     1     1     4     6
 0.9938568938     1     1     5     5
 -0.1110294729     1     1     6     2
 -0.0544409447     1     1     6     4
 0.3152244143     1     1     6     6
 -0.1247279801     1     1     7     3
 0.2836096960     1     1     7     7
 -0.9848467315     1     2     2     1
 0.0069829106     1     2     2     4
 -0.0008176279     1     2     2     6
 0.0309272925     1     2     3     3
 -0.0100877314     1     2     3     7
 0.0669381116     1     2     4     1
 0.0356730083     1     2     4     4
 -0.0058862442     1     2     4     6
 0.0403920757     1     2     5     5
 0.1110294729     1     2     6     1
 -0.0054968145     1     2     6     4
 0.0014669885     1     2     6     6
 -0.0071657452     1     2     7     3
 0.0034323130     1     2     7     7
 -0.0021451811     1     3     2     7
 -0.8715713616     1     3     3     1
 -0.0309272925     1     3     3     2
 0.0105901149     1     3     3     4
 0.0041765811     1     3     3     6
 -0.0009721065     1     3     4     7
 -0.0018564983     1     3     6     7
 0.1247279801     1     3     7     1
 0.0071657452     1     3     7     2
 -0.0025984960     1     3     7     4
 -0.0035083723     1     3     7     6
 0.0669381116     1     4     2     1
 -0.0069829106     1     4     2     2
 0.0001571659     1     4     2     6
 -0.0105901149     1     4     3     3
 0.0017879382     1     4     3     7
 -0.9494693156     1     4     4     1
 -0.0356730083     1     4     4     2
 0.0080741279     1     4     4     6
 -0.0136240761     1     4     5     5
 0.0544409447     1     4     6     1
 0.0054968145     1     4     6     2
 -0.0032240140     1     4     6     6
 0.0025984960     1     4     7     3
 -0.0020892578     1     4     7     7
 -0.9938568938     1     5     5     1
 -0.0403920757     1     5     5     2
 0.0136240761     1     5     5     4
 0.0077432114     1     5     5     6
 0.1110294729     1     6     2     1
 0.0008176279     1     6     2     2
 -0.0001571659     1     6     2     4
 -0.0041765811     1     6     3     3
 0.0015854719     1     6     3     7
 0.0544409447     1     6     4     1
 0.0058862442     1     6     4     2
 -0.0080741279     1     6     4     4
 -0.0077432114     1     6     5     5
 -0.3152244143     1     6     6     1
 -0.0014669885     1     6     6     2
 0.0032240140     1     6     6     4
 0.0035083723     1     6     7     3
 -0.0011605363     1     6     7     7
 0.0021451811     1     7     2     3
 0.1247279801     1     7     3     1
 0.0100877314     1     7     3     2
 -0.0017879382     1     7     3     4
 -0.0015854719     1     7     3     6
 0.0009721065     1     7     4     3
 0.0018564983     1     7     6     3
 -0.2836096960     1     7     7     1
 -0.0034323130     1     7     7     2
 0.0020892578     1     7     7     4
 0.0011605363     1     7     7     6
 -0.9848467315     2     1     1     2
 0.0669381116     2     1     1     4
 0.1110294729     2     1     1     6
 0.0309272925     2     1     3     3
 -0.0071657452     2     1     3     7
 0.0069829106     2     1     4     2
 0.0356730083     2     1     4     4
 -0.0054968145     2     1     4     6
 0.0403920757     2     1     5     5
 -0.0008176279     2     1     6     2
 -0.0058862442     2     1     6     4
 0.0014669885     2     1     6     6
 -0.0100877314     2     1     7     3
 0.0034323130     2     1     7     7
 0.9848467315     2     2     1     1
 -0.0069829106     2     2     1     4
 0.0008176279     2     2     1     6
 0.5285398380     2     2     3     3
 -0.0524494384     2     2     3     7
 -0.0069829106     2     2     4     1
 0.5501210456     2     2     4     4
 -0.0231132148     2     2     4     6
 0.5762645678     2     2     5     5
 0.0008176279     2     2     6     1
 -0.0231132148     2     2     6     4
 0.2808048382     2     2     6     6
 -0.0524494384     2     2     7     3
 0.2556847299     2     2     7     7
 0.0021451811     2     3     1     7
 -0.0309272925     2     3     3     1
 -0.5285398380     2     3     3     2
 0.0017562237     2     3     3     4
 0.0522380365     2     3     3     6
 0.0074306406     2     3     4     7
 0.0297901291     2     3     6     7
 0.0100877314     2     3     7     1
 0.0524494384     2     3     7     2
 0.0016378563     2     3     7     4
 0.0202915346     2     3     7     6
 -0.0669381116     2     4     1     1
 0.0069829106     2     4     1     2
 -0.0001571659     2     4     1     6
 -0.0017562237     2     4     3     3
 0.0059628175     2     4     3     7
 -0.0356730083     2     4     4     1
 -0.5501210456     2     4     4     2
 0.0517466364     2     4     4     6
 -0.0042604734     2     4     5     5
 0.0058862442     2     4     6     1
 0.0231132148     2     4     6     2
 0.0101235395     2     4     6     6
 -0.0016378563     2     4     7     3
 0.0112804040     2     4     7     7
 -0.0403920757     2     5     5     1
 -0.5762645678     2     5     5     2
 0.0042604734     2     5     5     4
 0.0512789555     2     5     5     6
 -0.1110294729     2     6     1     1
 -0.0008176279     2     6     1     2
 0.0001571659     2     6     1     4
 -0.0522380365     2     6     3     3
 0.0087513746     2     6     3     7
 0.0054968145     2     6     4     1
 0.0231132148     2     6     4     2
 -0.0517466364     2     6     4     4
 -0.0512789555     2     6     5     5
 -0.0014669885     2     6     6     1
 -0.2808048382     2     6     6     2
 -0.0101235395     2     6     6     4
 -0.0202915346     2     6     7     3
 -0.0053747304     2     6     7     7
 -0.0021451811     2     7     1     3
 0.0071657452     2     7     3     1
 0.0524494384     2     7     3     2
 -0.0059628175     2     7     3     4
 -0.0087513746     2     7     3     6
 -0.0074306406     2     7     4     3
 -0.0297901291     2     7     6     3
 -0.0034323130     2     7     7     1
 -0.2556847299     2     7     7     2
 -0.0112804040     2     7     7     4
 0.0053747304     2     7     7     6
 -0.8715713616     3     1     1     3
 0.1247279801     3     1     1     7
 -0.0309272925     3     1     2     3
 0.0071657452     3     1     2     7
 0.0105901149     3     1     4     3
 -0.0025984960     3     1     4     7
 0.0041765811     3     1     6     3
 -0.0035083723     3     1     6     7
 -0.0021451811     3     1     7     2
 -0.0009721065     3     1     7     4
 -0.0018564983     3     1     7     6
 -0.0309272925     3     2     1     3
 0.0100877314     3     2     1     7
 -0.5285398380     3     2     2     3
 0.0524494384     3     2     2     7
 0.0017562237     3     2     4     3
 0.0016378563     3     2     4     7
 0.0522380365     3     2     6     3
 0.0202915346     3     2     6     7
 0.0021451811     3     2     7     1
 0.0074306406     3     2     7     4
 0.0297901291     3     2     7     6
 0.8715713616     3     3     1     1
 0.0309272925     3     3     1     2
 -0.0105901149     3     3     1     4
 -0.0041765811     3     3     1     6
 0.0309272925     3     3     2     1
 0.5285398380     3     3     2     2
 -0.0017562237     3     3     2     4
 -0.0522380365     3     3     2     6
 -0.0105901149     3     3     4     1
 -0.0017562237     3     3     4     2
 0.5603534383     3     3     4     4
 -0.0263845707     3     3     4     6
 0.5826145391     3     3     5     5
 -0.0041765811     3     3     6     1
 -0.0522380365     3     3     6     2
 -0.0263845707     3     3     6     4
 0.2838910221     3     3     6     6
 0.2468004768     3     3     7     7
 0.0105901149     3     4     1     3
 -0.0017879382     3     4     1     7
 0.0017562237     3     4     2     3
 -0.0059628175     3     4     2     7
 -0.5603534383     3     4     4     3
 0.0646065110     3     4     4     7
 0.0263845707     3     4     6     3
 0.0011753397     3     4     6     7
 0.0009721065     3     4     7     1
 -0.0074306406     3     4     7     2
 0.0068568302     3     4     7     6
 -0.5826145391     3     5     5     3
 0.0667068693     3     5     5     7
 0.0041765811     3     6     1     3
 -0.0015854719     3     6     1     7
 0.0522380365     3     6     2     3
 -0.0087513746     3     6     2     7
 0.0263845707     3     6     4     3
 -0.0050677386     3     6     4     7
 -0.2838910221     3     6     6     3
 0.0200969123     3     6     6     7
 0.0018564983     3     6     7     1
 -0.0297901291     3     6     7     2
 -0.0068568302     3     6     7     4
 -0.1247279801     3     7     1     1
 -0.0100877314     3     7     1     2
 0.0017879382     3     7     1     4
 0.0015854719     3     7     1     6
 -0.0071657452     3     7     2     1
 -0.0524494384     3     7     2     2
 0.0059628175     3     7     2     4
 0.0087513746     3     7     2     6
 0.0025984960     3     7     4     1
 -0.0016378563     3     7     4     2
 -0.0646065110     3     7     4     4
 0.0050677386     3     7     4     6
 -0.0667068693     3     7     5     5
 0.0035083723     3     7     6     1
 -0.0202915346     3     7     6     2
 -0.0011753397     3     7     6     4
 -0.0200969123     3     7     6     6
 -0.2468004768     3     7     7     3
 0.0669381116     4     1     1     2
 -0.9494693156     4     1     1     4
 0.0544409447     4     1     1     6
 -0.0069829106     4     1     2     2
 -0.0356730083     4     1     2     4
 0.0054968145     4     1     2     6
 -0.0105901149     4     1     3     3
 0.0025984960     4     1     3     7
 -0.0136240761     4     1     5     5
 0.0001571659     4     1     6     2
 0.0080741279     4     1     6     4
 -0.0032240140     4     1     6     6
 0.0017879382     4     1     7     3
 -0.0020892578     4     1     7     7
 -0.0669381116     4     2     1     1
 -0.0356730083     4     2     1     4
 0.0058862442     4     2     1     6
 0.0069829106     4     2     2     1
 -0.5501210456     4     2     2     4
 0.0231132148     4     2     2     6
 -0.0017562237     4     2     3     3
 -0.0016378563     4     2     3     7
 -0.0042604734     4     2     5     5
 -0.0001571659     4     2     6     1
 0.0517466364     4     2     6     4
 0.0101235395     4     2     6     6
 0.0059628175     4     2     7     3
 0.0112804040     4     2     7     7
 0.0009721065     4     3     1     7
 -0.0074306406     4     3     2     7
 0.0105901149     4     3     3     1
 0.0017562237     4     3     3     2
 -0.5603534383     4     3     3     4
 0.0263845707     4     3     3     6
 0.0068568302     4     3     6     7
 -0.0017879382     4     3     7     1
 -0.0059628175     4     3     7     2
 0.0646065110     4     3     7     4
 0.0011753397     4     3     7     6
 0.9494693156     4     4     1     1
 0.0356730083     4     4     1     2
 -0.0080741279     4     4     1     6
 0.0356730083     4     4     2     1
 0.5501210456     4     4     2     2
 -0.0517466364     4     4     2     6
 0.5603534383     4     4     3     3
 -0.0646065110     4     4     3     7
 0.6010509097     4     4     5     5
 -0.0080741279     4     4     6     1
 -0.0517466364     4     4     6     2
 0.2716458337     4     4     6     6
 -0.0646065110     4     4     7     3
 0.2470065023     4     4     7     7
 0.0136240761     4     5     5     1
 0.0042604734     4     5     5     2
 -0.6010509097     4     5     5     4
 0.0310926580     4     5     5     6
 -0.0544409447     4     6     1     1
 -0.0058862442     4     6     1     2
 0.0080741279     4     6     1     4
 -0.0054968145     4     6     2     1
 -0.0231132148     4     6     2     2
 0.0517466364     4     6     2     4
 -0.0263845707     4     6     3     3
 0.0050677386     4     6     3     7
 -0.0310926580     4     6     5     5
 0.0032240140     4     6     6     1
 -0.0101235395     4     6     6     2
 -0.2716458337     4     6     6     4
 -0.0011753397     4     6     7     3
 -0.0044709376     4     6     7     7
 -0.0009721065     4     7     1     3
 0.0074306406     4     7     2     3
 -0.0025984960     4     7     3     1
 0.0016378563     4     7     3     2
 0.0646065110     4     7     3     4
 -0.0050677386     4     7     3     6
 -0.0068568302     4     7     6     3
 0.0020892578     4     7     7     1
 -0.0112804040     4     7     7     2
 -0.2470065023     4     7     7     4
 0.0044709376     4     7     7     6
 -0.9938568938     5     1     1     5
 -0.0403920757     5     1     2     5
 0.0136240761     5     1     4     5
 0.0077432114     5     1     6     5
 -0.0403920757     5     2     1     5
 -0.5762645678     5     2     2     5
 0.0042604734     5     2     4     5
 0.0512789555     5     2     6     5
 -0.5826145391     5     3     3     5
 0.0667068693     5     3     7     5
 0.0136240761     5     4     1     5
 0.0042604734     5     4     2     5
 -0.6010509097     5     4     4     5
 0.0310926580     5     4     6     5
 0.9938568938     5     5     1     1
 0.0403920757     5     5     1     2
 -0.0136240761     5     5     1     4
 -0.0077432114     5     5     1     6
 0.0403920757     5     5     2     1
 0.5762645678     5     5     2     2
 -0.0042604734     5     5     2     4
 -0.0512789555     5     5     2     6
 0.5826145391     5     5     3     3
 -0.0667068693     5     5     3     7
 -0.0136240761     5     5     4     1
 -0.0042604734     5     5     4     2
 0.6010509097     5     5     4     4
 -0.0310926580     5     5     4     6
 -0.0077432114     5     5     6     1
 -0.0512789555     5     5     6     2
 -0.0310926580     5     5     6     4
 0.2791988467     5     5     6     6
 -0.0667068693     5     5     7     3
 0.2508571309     5     5     7     7
 0.0077432114     5     6     1     5
 0.0512789555     5     6     2     5
 0.0310926580     5     6     4     5
 -0.2791988467     5     6     6     5
 0.0667068693     5     7     3     5
 -0.2508571309     5     7     7     5
 0.1110294729     6     1     1     2
 0.0544409447     6     1     1     4
 -0.3152244143     6     1     1     6
 0.0008176279     6     1     2     2
 0.0058862442     6     1     2     4
 -0.0014669885     6     1     2     6
 -0.0041765811     6     1     3     3
 0.0035083723     6     1     3     7
 -0.0001571659     6     1     4     2
 -0.0080741279     6     1     4     4
 0.0032240140     6     1     4     6
 -0.0077432114     6     1     5     5
 0.0015854719     6     1     7     3
 -0.0011605363     6     1     7     7
 -0.1110294729     6     2     1     1
 0.0054968145     6     2     1     4
 -0.0014669885     6     2     1     6
 -0.0008176279     6     2     2     1
 0.0231132148     6     2     2     4
 -0.2808048382     6     2     2     6
 -0.0522380365     6     2     3     3
 -0.0202915346     6     2     3     7
 0.0001571659     6     2     4     1
 -0.0517466364     6     2     4     4
 -0.0101235395     6     2     4     6
 -0.0512789555     6     2     5     5
 0.0087513746     6     2     7     3
 -0.0053747304     6     2     7     7
 0.0018564983     6     3     1     7
 -0.0297901291     6     3     2     7
 0.0041765811     6     3     3     1
 0.0522380365     6     3     3     2
 0.0263845707     6     3     3     4
 -0.2838910221     6     3     3     6
 -0.0068568302     6     3     4     7
 -0.0015854719     6     3     7     1
 -0.0087513746     6     3     7     2
 -0.0050677386     6     3     7     4
 0.0200969123     6     3     7     6
 -0.0544409447     6     4     1     1
 -0.0054968145     6     4     1     2
 0.0032240140     6     4     1     6
 -0.0058862442     6     4     2     1
 -0.0231132148     6     4     2     2
 -0.0101235395     6     4     2     6
 -0.0263845707     6     4     3     3
 -0.0011753397     6     4     3     7
 0.0080741279     6     4     4     1
 0.0517466364     6     4     4     2
 -0.2716458337     6     4     4     6
 -0.0310926580     6     4     5     5
 0.0050677386     6     4     7     3
 -0.0044709376     6     4     7     7
 0.0077432114     6     5     5     1
 0.0512789555     6     5     5     2
 0.0310926580     6     5     5     4
 -0.2791988467     6     5     5     6
 0.3152244143     6     6     1     1
 0.0014669885     6     6     1     2
 -0.0032240140     6     6     1     4
 0.0014669885     6     6     2     1
 0.2808048382     6     6     2     2
 0.0101235395     6     6     2     4
 0.2838910221     6     6     3     3
 -0.0200969123     6     6     3     7
 -0.0032240140     6     6     4     1
 0.0101235395     6     6     4     2
 0.2716458337     6     6     4     4
 0.2791988467     6     6     5     5
 -0.0200969123     6     6     7     3
 0.1705770708     6     6     7     7
 -0.0018564983     6     7     1     3
 0.0297901291     6     7     2     3
 -0.0035083723     6     7     3     1
 0.0202915346     6     7     3     2
 0.0011753397     6     7     3     4
 0.0200969123     6     7     3     6
 0.0068568302     6     7     4     3
 0.0011605363     6     7     7     1
 0.0053747304     6     7     7     2
 0.0044709376     6     7     7     4
 -0.1705770708     6     7     7     6
 0.1247279801     7     1     1     3
 -0.2836096960     7     1     1     7
 0.0100877314     7     1     2     3
 -0.0034323130     7     1     2     7
 0.0021451811     7     1     3     2
 0.0009721065     7     1     3     4
 0.0018564983     7     1     3     6
 -0.0017879382     7     1     4     3
 0.0020892578     7     1     4     7
 -0.0015854719     7     1     6     3
 0.0011605363     7     1     6     7
 0.0071657452     7     2     1     3
 -0.0034323130     7     2     1     7
 0.0524494384     7     2     2     3
 -0.2556847299     7     2     2     7
 -0.0021451811     7     2     3     1
 -0.0074306406     7     2     3     4
 -0.0297901291     7     2     3     6
 -0.0059628175     7     2     4     3
 -0.0112804040     7     2     4     7
 -0.0087513746     7     2     6     3
 0.0053747304     7     2     6     7
 -0.1247279801     7     3     1     1
 -0.0071657452     7     3     1     2
 0.0025984960     7     3     1     4
 0.0035083723     7     3     1     6
 -0.0100877314     7     3     2     1
 -0.0524494384     7     3     2     2
 -0.0016378563     7     3     2     4
 -0.0202915346     7     3     2     6
 -0.2468004768     7     3     3     7
 0.0017879382     7     3     4     1
 0.0059628175     7     3     4     2
 -0.0646065110     7     3     4     4
 -0.0011753397     7     3     4     6
 -0.0667068693     7     3     5     5
 0.0015854719     7     3     6     1
 0.0087513746     7     3     6     2
 0.0050677386     7     3     6     4
 -0.0200969123     7     3     6     6
 -0.0025984960     7     4     1     3
 0.0020892578     7     4     1     7
 0.0016378563     7     4     2     3
 -0.0112804040     7     4     2     7
 -0.0009721065     7     4     3     1
 0.0074306406     7     4     3     2
 -0.0068568302     7     4     3     6
 0.0646065110     7     4     4     3
 -0.2470065023     7     4     4     7
 -0.0050677386     7     4     6     3
 0.0044709376     7     4     6     7
 0.0667068693     7     5     5     3
 -0.2508571309     7     5     5     7
 -0.0035083723     7     6     1     3
 0.0011605363     7     6     1     7
 0.0202915346     7     6     2     3
 0.0053747304     7     6     2     7
 -0.0018564983     7     6     3     1
 0.0297901291     7     6     3     2
 0.0068568302     7     6     3     4
 0.0011753397     7     6     4     3
 0.0044709376     7     6     4     7
 0.0200969123     7     6     6     3
 -0.1705770708     7     6     6     7
 0.2836096960     7     7     1     1
 0.0034323130     7     7     1     2
 -0.0020892578     7     7     1     4
 -0.0011605363     7     7     1     6
 0.0034323130     7     7     2     1
 0.2556847299     7     7     2     2
 0.0112804040     7     7     2     4
 -0.0053747304     7     7     2     6
 0.2468004768     7     7     3     3
 -0.0020892578     7     7     4     1
 0.0112804040     7     7     4     2
 0.2470065023     7     7     4     4
 -0.0044709376     7     7     4     6
 0.2508571309     7     7     5     5
 -0.0011605363     7     7     6     1
 -0.0053747304     7     7     6     2
 -0.0044709376     7     7     6     4
 0.1705770708     7     7     6     6
0.0 0 0 0 0
 0.9848467315     1     1     2     2
 -0.0669381116     1     1     2     4
 -0.1110294729     1     1     2     6
 0.8715713616     1     1     3     3
 -0.1247279801     1     1     3     7
 -0.0669381116     1     1     4     2
 0.9494693156     1     1     4     4
 -0.0544409447     1     1     4     6
 0.9938568938     1     1     5     5
 -0.1110294729     1     1     6     2
 -0.0544409447     1     1     6     4
 0.3152244143     1     1     6     6
 -0.1247279801     1     1     7     3
 0.2836096960     1     1     7     7
 -0.9848467315     1     2     2     1
 0.0069829106     1     2     2     4
 -0.0008176279     1     2     2     6
 0.0309272925     1     2     3     3
 -0.0100877314     1     2     3     7
 0.0669381116     1     2     4     1
 0.0356730083     1     2     4     4
 -0.0058862442     1     2     4     6
 0.0403920757     1     2     5     5
 0.1110294729     1     2     6     1
 -0.0054968145     1     2     6     4
 0.0014669885     1     2     6     6
 -0.0071657452     1     2     7     3
 0.0034323130     1     2     7     7
 -0.0021451811     1     3     2     7
 -0.8715713616     1     3     3     1
 -0.0309272925     1     3     3     2
 0.0105901149     1     3     3     4
 0.0041765811     1     3     3     6
 -0.0009721065     1     3     4     7
 -0.0018564983     1     3     6     7
 0.1247279801     1     3     7     1
 0.0071657452     1     3     7     2
 -0.0025984960     1     3     7     4
 -0.0035083723     1     3     7     6
 0.0669381116     1     4     2     1
 -0.0069829106     1     4     2     2
 0.0001571659     1     4     2     6
 -0.0105901149     1     4     3     3
 0.0017879382     1     4     3     7
 -0.9494693156     1     4     4     1
 -0.0356730083     1     4     4     2
 0.0080741279     1     4     4     6
 -0.0136240761     1     4     5     5
 0.0544409447     1     4     6     1
 0.0054968145     1     4     6     2
 -0.0032240140     1     4     6     6
 0.0025984960     1     4     7     3
 -0.0020892578     1     4     7     7
 -0.9938568938     1     5     5     1
 -0.0403920757     1     5     5     2
 0.0136240761     1     5     5     4
 0.0077432114     1     5     5     6
 0.1110294729     1     6     2     1
 0.0008176279     1     6     2     2
 -0.0001571659     1     6     2     4
 -0.0041765811     1     6     3     3
 0.0015854719     1     6     3     7
 0.0544409447     1     6     4     1
 0.0058862442     1     6     4     2
 -0.0080741279     1     6     4     4
 -0.0077432114     1     6     5     5
 -0.3152244143     1     6     6     1
 -0.0014669885     1     6     6     2
 0.0032240140     1     6     6     4
 0.0035083723     1     6     7     3
 -0.0011605363     1     6     7     7
 0.0021451811     1     7     2     3
 0.1247279801     1     7     3     1
 0.0100877314     1     7     3     2
 -0.0017879382     1     7     3     4
 -0.0015854719     1     7     3     6
 0.0009721065     1     7     4     3
 0.0018564983     1     7     6     3
 -0.2836096960     1     7     7     1
 -0.0034323130     1     7     7     2
 0.0020892578     1     7     7     4
 0.0011605363     1     7     7     6
 -0.9848467315     2     1     1     2
 0.0669381116     2     1     1     4
 0.1110294729     2     1     1     6
 0.0309272925     2     1     3     3
 -0.0071657452     2     1     3     7
 0.0069829106     2     1     4     2
 0.0356730083     2     1     4     4
 -0.0054968145     2     1     4     6
 0.0403920757     2     1     5     5
 -0.0008176279     2     1     6     2
 -0.0058862442     2     1     6     4
 0.0014669885     2     1     6     6
 -0.0100877314     2     1     7     3
 0.0034323130     2     1     7     7
 0.9848467315     2     2     1     1
 -0.0069829106     2     2     1     4
 0.0008176279     2     2     1     6
 0.5285398380     2     2     3     3
 -0.0524494384     2     2     3     7
 -0.0069829106     2     2     4     1
 0.5501210456     2     2     4     4
 -0.0231132148     2     2     4     6
 0.5762645678     2     2     5     5
 0.0008176279     2     2     6     1
 -0.0231132148     2     2     6     4
 0.2808048382     2     2     6     6
 -0.0524494384     2     2     7     3
 0.2556847299     2     2     7     7
 0.0021451811     2     3     1     7
 -0.0309272925     2     3     3     1
 -0.5285398380     2     3     3     2
 0.0017562237     2     3     3     4
 0.0522380365     2     3     3     6
 0.0074306406     2     3     4     7
 0.0297901291     2     3     6     7
 0.0100877314     2     3     7     1
 0.0524494384     2     3     7     2
 0.0016378563     2     3     7     4
 0.0202915346     2     3     7     6
 -0.0669381116     2     4     1     1
 0.0069829106     2     4     1     2
 -0.0001571659     2     4     1     6
 -0.0017562237     2     4     3     3
 0.0059628175     2     4     3     7
 -0.0356730083     2     4     4     1
 -0.5501210456     2     4     4     2
 0.0517466364     2     4     4     6
 -0.0042604734     2     4     5     5
 0.0058862442     2     4     6     1
 0.0231132148     2     4     6     2
 0.0101235395     2     4     6     6
 -0.0016378563     2     4     7     3
 0.0112804040     2     4     7     7
 -0.0403920757     2     5     5     1
 -0.5762645678     2     5     5     2
 0.0042604734     2     5     5     4
 0.0512789555     2     5     5     6
 -0.1110294729     2     6     1     1
 -0.0008176279     2     6     1     2
 0.0001571659     2     6     1     4
 -0.0522380365     2     6     3     3
 0.0087513746     2     6     3     7
 0.0054968145     2     6     4     1
 0.0231132148     2     6     4     2
 -0.0517466364     2     6     4     4
 -0.0512789555     2     6     5     5
 -0.0014669885     2     6     6     1
 -0.2808048382     2     6     6     2
 -0.0101235395     2     6     6     4
 -0.0202915346     2     6     7     3
 -0.0053747304     2     6     7     7
 -0.0021451811     2     7     1     3
 0.0071657452     2     7     3     1
 0.0524494384     2     7     3     2
 -0.0059628175     2     7     3     4
 -0.0087513746     2     7     3     6
 -0.0074306406     2     7     4     3
 -0.0297901291     2     7     6     3
 -0.0034323130     2     7     7     1
 -0.2556847299     2     7     7     2
 -0.0112804040     2     7     7     4
 0.0053747304     2     7     7     6
 -0.8715713616     3     1     1     3
 0.1247279801     3     1     1     7
 -0.0309272925     3     1     2     3
 0.0071657452     3     1     2     7
 0.0105901149     3     1     4     3
 -0.0025984960     3     1     4     7
 0.0041765811     3     1     6     3
 -0.0035083723     3     1     6     7
 -0.0021451811     3     1     7     2
 -0.0009721065     3     1     7     4
 -0.0018564983     3     1     7     6
 -0.0309272925     3     2     1     3
 0.0100877314     3     2     1     7
 -0.5285398380     3     2     2     3
 0.0524494384     3     2     2     7
 0.0017562237     3     2     4     3
 0.0016378563     3     2     4     7
 0.0522380365     3     2     6     3
 0.0202915346     3     2     6     7
 0.0021451811     3     2     7     1
 0.0074306406     3     2     7     4
 0.0297901291     3     2     7     6
 0.8715713616     3     3     1     1
 0.0309272925     3     3     1     2
 -0.0105901149     3     3     1     4
 -0.0041765811     3     3     1     6
 0.0309272925     3     3     2     1
 0.5285398380     3     3     2     2
 -0.0017562237     3     3     2     4
 -0.0522380365     3     3     2     6
 -0.0105901149     3     3     4     1
 -0.0017562237     3     3     4     2
 0.5603534383     3     3     4     4
 -0.0263845707     3     3     4     6
 0.5826145391     3     3     5     5
 -0.0041765811     3     3     6     1
 -0.0522380365     3     3     6     2
 -0.0263845707     3     3     6     4
 0.2838910221     3     3     6     6
 0.2468004768     3     3     7     7
 0.0105901149     3     4     1     3
 -0.0017879382     3     4     1     7
 0.0017562237     3     4     2     3
 -0.0059628175     3     4     2     7
 -0.5603534383     3     4     4     3
 0.0646065110     3     4     4     7
 0.0263845707     3     4     6     3
 0.0011753397     3     4     6     7
 0.0009721065     3     4     7     1
 -0.0074306406     3     4     7     2
 0.0068568302     3     4     7     6
 -0.5826145391     3     5     5     3
 0.0667068693     3     5     5     7
 0.0041765811     3     6     1     3
 -0.0015854719     3     6     1     7
 0.0522380365     3     6     2     3
 -0.0087513746     3     6     2     7
 0.0263845707     3     6     4     3
 -0.0050677386     3     6     4     7
 -0.2838910221     3     6     6     3
 0.0200969123     3     6     6     7
 0.0018564983     3     6     7     1
 -0.0297901291     3     6     7     2
 -0.0068568302     3     6     7     4
 -0.1247279801     3     7     1     1
 -0.0100877314     3     7     1     2
 0.0017879382     3     7     1     4
 0.0015854719     3     7     1     6
 -0.0071657452     3     7     2     1
 -0.0524494384     3     7     2     2
 0.0059628175     3     7     2     4
 0.0087513746     3     7     2     6
 0.0025984960     3     7     4     1
 -0.0016378563     3     7     4     2
 -0.0646065110     3     7     4     4
 0.0050677386     3     7     4     6
 -0.0667068693     3     7     5     5
 0.0035083723     3     7     6     1
 -0.0202915346     3     7     6     2
 -0.0011753397     3     7     6     4
 -0.0200969123     3     7     6     6