&FCI NORB= 11,NELEC= 10,MS2=0,
 ORBSYM=1,1,1,1,1,1,1,1,1,1,1
 ISYM=1,
&END
 0.9889790793     1     1     2     2
 -0.0163720619     1     1     2     3
 0.0756576558     1     1     2     4
 -0.1242606734     1     1     2     6
 0.0428853838     1     1     2     7
 0.0548737062     1     1     2     8
 0.0673306091     1     1     2     9
 0.0263793950     1     1     2    10
 -0.0163720619     1     1     3     2
 0.8478541779     1     1     3     3
 -0.0551980352     1     1     3     4
 0.0630906697     1     1     3     6
 0.1509582960     1     1     3     7
 -0.0796932201     1     1     3     8
 0.0190079449     1     1     3     9
 0.1085263530     1     1     3    10
 0.0756576558     1     1     4     2
 -0.0551980352     1     1     4     3
 0.8966063040     1     1     4     4
 0.1287141907     1     1     4     6
 0.0381663569     1     1     4     7
 -0.0935692745     1     1     4     8
 0.0441905430     1     1     4     9
 -0.2040745642     1     1     4    10
 1.0009835562     1     1     5     5
 0.2567486069     1     1     5    11
 -0.1242606734     1     1     6     2
 0.0630906697     1     1     6     3
 0.1287141907     1     1     6     4
 0.3712240700     1     1     6     6
 0.0225522613     1     1     6     7
 -0.1295077093     1     1     6     8
 -0.0255083365     1     1     6     9
 -0.0760082689     1     1     6    10
 0.0428853838     1     1     7     2
 0.1509582960     1     1     7     3
 0.0381663569     1     1     7     4
 0.0225522613     1     1     7     6
 0.3077065261     1     1     7     7
 -0.0753862255     1     1     7     8
 0.0474433889     1     1     7     9
 0.0517990851     1     1     7    10
 0.0548737062     1     1     8     2
 -0.0796932201     1     1     8     3
 -0.0935692745     1     1     8     4
 -0.1295077093     1     1     8     6
 -0.0753862255     1     1     8     7
 0.3910387904     1     1     8     8
 -0.0113885337     1     1     8     9
 0.0254109752     1     1     8    10
 0.0673306091     1     1     9     2
 0.0190079449     1     1     9     3
 0.0441905430     1     1     9     4
 -0.0255083365     1     1     9     6
 0.0474433889     1     1     9     7
 -0.0113885337     1     1     9     8
 0.3719495585     1     1     9     9
 0.0143319832     1     1     9    10
 0.0263793950     1     1    10     2
 0.1085263530     1     1    10     3
 -0.2040745642     1     1    10     4
 -0.0760082689     1     1    10     6
 0.0517990851     1     1    10     7
 0.0254109752     1     1    10     8
 0.0143319832     1     1    10     9
 0.4707410021     1     1    10    10
 0.2567486069     1     1    11     5
 0.4960437102     1     1    11    11
 -0.9889790793     1     2     2     1
 -0.0038282659     1     2     2     3
 0.0040851418     1     2     2     4
 0.0006078094     1     2     2     6
 -0.0012478968     1     2     2     7
 -0.0000846636     1     2     2     8
 -0.0000292225     1     2     2     9
 -0.0038760689     1     2     2    10
 0.0163720619     1     2     3     1
 -0.0304981049     1     2     3     3
 0.0034180059     1     2     3     4
 -0.0037552636     1     2     3     6
 -0.0113502483     1     2     3     7
 0.0071924546     1     2     3     8
 -0.0036233408     1     2     3     9
 -0.0102669027     1     2     3    10
 -0.0756576558     1     2     4     1
 0.0029933222     1     2     4     3
 -0.0333944674     1     2     4     4
 -0.0103998397     1     2     4     6
 -0.0020078857     1     2     4     7
 0.0087719163     1     2     4     8
 -0.0020016453     1     2     4     9
 0.0167945522     1     2     4    10
 -0.0419682730     1     2     5     5
 -0.0217667862     1     2     5    11
 0.1242606734     1     2     6     1
 -0.0023895035     1     2     6     3
 -0.0089535912     1     2     6     4
 -0.0045379310     1     2     6     6
 -0.0023553354     1     2     6     7
 0.0043176783     1     2     6     8
 -0.0009940334     1     2     6     9
 0.0046053022     1     2     6    10
 -0.0428853838     1     2     7     1
 -0.0086891478     1     2     7     3
 -0.0013297572     1     2     7     4
 -0.0024595307     1     2     7     6
 -0.0043416509     1     2     7     7
 0.0034914166     1     2     7     8
 -0.0015015856     1     2     7     9
 -0.0022219840     1     2     7    10
 -0.0548737062     1     2     8     1
 0.0048679762     1     2     8     3
 0.0070457652     1     2     8     4
 0.0041201589     1     2     8     6
 0.0032259474     1     2     8     7
 -0.0044266242     1     2     8     8
 0.0014497681     1     2     8     9
 -0.0027071245     1     2     8    10
 -0.0673306091     1     2     9     1
 -0.0025667669     1     2     9     3
 -0.0011422298     1     2     9     4
 -0.0007795166     1     2     9     6
 -0.0013732652     1     2     9     7
 0.0013122989     1     2     9     8
 -0.0006406857     1     2     9     9
 0.0000588937     1     2     9    10
 -0.0263793950     1     2    10     1
 -0.0072902300     1     2    10     3
 0.0127449022     1     2    10     4
 0.0036841177     1     2    10     6
 -0.0018831266     1     2    10     7
 -0.0022806896     1     2    10     8
 0.0003376118     1     2    10     9
 -0.0107012382     1     2    10    10
 -0.0159407848     1     2    11     5
 -0.0109854648     1     2    11    11
 0.0163720619     1     3     2     1
 0.0038282659     1     3     2     2
 0.0004251616     1     3     2     4
 -0.0011210984     1     3     2     6
 -0.0018378150     1     3     2     7
 0.0018639519     1     3     2     8
 -0.0008033828     1     3     2     9
 -0.0023023434     1     3     2    10
 -0.8478541779     1     3     3     1
 0.0304981049     1     3     3     2
 0.0072623858     1     3     3     4
 -0.0036574343     1     3     3     6
 0.0022926909     1     3     3     7
 0.0005856427     1     3     3     8
 0.0006555618     1     3     3     9
 -0.0017336176     1     3     3    10
 0.0551980352     1     3     4     1
 -0.0029933222     1     3     4     2
 0.0039235876     1     3     4     4
 0.0030161786     1     3     4     6
 0.0012959291     1     3     4     7
 -0.0043645108     1     3     4     8
 0.0011907660     1     3     4     9
 -0.0012944550     1     3     4    10
 0.0059721495     1     3     5     5
 0.0038365875     1     3     5    11
 -0.0630906697     1     3     6     1
 0.0023895035     1     3     6     2
 0.0019568546     1     3     6     4
 -0.0005739234     1     3     6     6
 -0.0011804550     1     3     6     7
 -0.0002528413     1     3     6     8
 0.0007310243     1     3     6     9
 -0.0010984608     1     3     6    10
 -0.1509582960     1     3     7     1
 0.0086891478     1     3     7     2
 0.0025545467     1     3     7     4
 -0.0032086674     1     3     7     6
 0.0022197315     1     3     7     7
 0.0007855037     1     3     7     8
 0.0015401684     1     3     7     9
 0.0007111907     1     3     7    10
 0.0796932201     1     3     8     1
 -0.0048679762     1     3     8     2
 -0.0022912065     1     3     8     4
 0.0013974407     1     3     8     6
 -0.0000645995     1     3     8     7
 -0.0019789829     1     3     8     8
 -0.0003031650     1     3     8     9
 -0.0006868424     1     3     8    10
 -0.0190079449     1     3     9     1
 0.0025667669     1     3     9     2
 0.0006044533     1     3     9     4
 -0.0002055323     1     3     9     6
 0.0016360845     1     3     9     7
 0.0001100646     1     3     9     8
 0.0008266616     1     3     9     9
 0.0030190122     1     3     9    10
 -0.1085263530     1     3    10     1
 0.0072902300     1     3    10     2
 0.0001362163     1     3    10     4
 -0.0031593669     1     3    10     6
 0.0012775575     1     3    10     7
 0.0012444566     1     3    10     8
 0.0025123001     1     3    10     9
 0.0024633165     1     3    10    10
 0.0020769181     1     3    11     5
 -0.0000211137     1     3    11    11
 -0.0756576558     1     4     2     1
 -0.0040851418     1     4     2     2
 -0.0004251616     1     4     2     3
 -0.0006087045     1     4     2     6
 -0.0005555659     1     4     2     7
 0.0011021119     1     4     2     8
 -0.0007270989     1     4     2     9
 0.0028180285     1     4     2    10
 0.0551980352     1     4     3     1
 -0.0034180059     1     4     3     2
 -0.0072623858     1     4     3     3
 0.0009515600     1     4     3     6
 -0.0014183340     1     4     3     7
 -0.0019452097     1     4     3     8
 0.0005783100     1     4     3     9
 -0.0014480409     1     4     3    10
 -0.8966063040     1     4     4     1
 0.0333944674     1     4     4     2
 -0.0039235876     1     4     4     3
 -0.0079056590     1     4     4     6
 0.0016096918     1     4     4     7
 0.0040465635     1     4     4     8
 0.0051927197     1     4     4     9
 0.0039488315     1     4     4    10
 -0.0107127829     1     4     5     5
 -0.0046095991     1     4     5    11
 -0.1287141907     1     4     6     1
 0.0089535912     1     4     6     2
 -0.0019568546     1     4     6     3
 -0.0049398815     1     4     6     6
 -0.0004061847     1     4     6     7
 0.0027849139     1     4     6     8
 0.0012361209     1     4     6     9
 0.0028083896     1     4     6    10
 -0.0381663569     1     4     7     1
 0.0013297572     1     4     7     2
 -0.0025545467     1     4     7     3
 -0.0011522357     1     4     7     6
 -0.0017743853     1     4     7     7
 0.0011066832     1     4     7     8
 0.0001128226     1     4     7     9
 -0.0011591363     1     4     7    10
 0.0935692745     1     4     8     1
 -0.0070457652     1     4     8     2
 0.0022912065     1     4     8     3
 0.0038364177     1     4     8     6
 0.0013165399     1     4     8     7
 -0.0044489038     1     4     8     8
 -0.0017262964     1     4     8     9
 -0.0006911098     1     4     8    10
 -0.0441905430     1     4     9     1
 0.0011422298     1     4     9     2
 -0.0006044533     1     4     9     3
 -0.0010233950     1     4     9     6
 -0.0005468282     1     4     9     7
 -0.0000330290     1     4     9     8
 -0.0010198707     1     4     9     9
 -0.0004474270     1     4     9    10
 0.2040745642     1     4    10     1
 -0.0127449022     1     4    10     2
 -0.0001362163     1     4    10     3
 0.0057061044     1     4    10     6
 -0.0023092983     1     4    10     7
 -0.0022391201     1     4    10     8
 -0.0031043263     1     4    10     9
 -0.0017027141     1     4    10    10
 -0.0045868082     1     4    11     5
 -0.0043662969     1     4    11    11
 -0.0043548397     1     5     2    11
 0.0016706469     1     5     3    11
 0.0002952454     1     5     4    11
 -1.0009835562     1     5     5     1
 0.0419682730     1     5     5     2
 -0.0059721495     1     5     5     3
 0.0107127829     1     5     5     4
 -0.0085649961     1     5     5     6
 0.0019175362     1     5     5     7
 0.0056683861     1     5     5     8
 0.0076469953     1     5     5     9
 -0.0009135434     1     5     5    10
 -0.0014275177     1     5     6    11
 0.0006780757     1     5     7    11
 -0.0010687804     1     5     8    11
 -0.0008925686     1     5     9    11
 0.0000251160     1     5    10    11
 -0.2567486069     1     5    11     1
 0.0159407848     1     5    11     2
 -0.0020769181     1     5    11     3
 0.0045868082     1     5    11     4
 -0.0064759123     1     5    11     6
 0.0012687700     1     5    11     7
 0.0025188542     1     5    11     8
 0.0030492429     1     5    11     9
 -0.0001361226     1     5    11    10
 0.1242606734     1     6     2     1
 -0.0006078094     1     6     2     2
 0.0011210984     1     6     2     3
 0.0006087045     1     6     2     4
 0.0001150353     1     6     2     7
 0.0001937755     1     6     2     8
 -0.0001967915     1     6     2     9
 0.0009225569     1     6     2    10
 -0.0630906697     1     6     3     1
 0.0037552636     1     6     3     2
 0.0036574343     1     6     3     3
 -0.0009515600     1     6     3     4
 0.0020586386     1     6     3     7
 -0.0016844887     1     6     3     8
 0.0009536460     1     6     3     9
 0.0020416067     1     6     3    10
 -0.1287141907     1     6     4     1
 0.0103998397     1     6     4     2
 -0.0030161786     1     6     4     3
 0.0079056590     1     6     4     4
 0.0007688307     1     6     4     7
 -0.0011065646     1     6     4     8
 0.0022706630     1     6     4     9
 -0.0029194647     1     6     4    10
 0.0085649961     1     6     5     5
 0.0050195593     1     6     5    11
 -0.3712240700     1     6     6     1
 0.0045379310     1     6     6     2
 0.0005739234     1     6     6     3
 0.0049398815     1     6     6     4
 0.0007662813     1     6     6     7
 -0.0008725191     1     6     6     8
 0.0011214462     1     6     6     9
 -0.0011711324     1     6     6    10
 -0.0225522613     1     6     7     1
 0.0024595307     1     6     7     2
 0.0032086674     1     6     7     3
 0.0011522357     1     6     7     4
 0.0015988700     1     6     7     7
 -0.0008792940     1     6     7     8
 0.0009406663     1     6     7     9
 0.0006569210     1     6     7    10
 0.1295077093     1     6     8     1
 -0.0041201589     1     6     8     2
 -0.0013974407     1     6     8     3
 -0.0038364177     1     6     8     4
 -0.0009065489     1     6     8     7
 -0.0001574892     1     6     8     8
 -0.0012900952     1     6     8     9
 0.0007626394     1     6     8    10
 0.0255083365     1     6     9     1
 0.0007795166     1     6     9     2
 0.0002055323     1     6     9     3
 0.0010233950     1     6     9     4
 0.0003611705     1     6     9     7
 -0.0004330637     1     6     9     8
 -0.0001030218     1     6     9     9
 -0.0000626447     1     6     9    10
 0.0760082689     1     6    10     1
 -0.0036841177     1     6    10     2
 0.0031593669     1     6    10     3
 -0.0057061044     1     6    10     4
 0.0001280393     1     6    10     7
 0.0003294635     1     6    10     8
 -0.0007831240     1     6    10     9
 0.0039195703     1     6    10    10
 0.0064759123     1     6    11     5
 0.0030655564     1     6    11    11
 -0.0428853838     1     7     2     1
 0.0012478968     1     7     2     2
 0.0018378150     1     7     2     3
 0.0005555659     1     7     2     4
 -0.0001150353     1     7     2     6
 0.0002530377     1     7     2     8
 -0.0001174033     1     7     2     9
 -0.0003409214     1     7     2    10
 -0.1509582960     1     7     3     1
 0.0113502483     1     7     3     2
 -0.0022926909     1     7     3     3
 0.0014183340     1     7     3     4
 -0.0020586386     1     7     3     6
 0.0008588849     1     7     3     8
 -0.0000651481     1     7     3     9
 -0.0006344614     1     7     3    10
 -0.0381663569     1     7     4     1
 0.0020078857     1     7     4     2
 -0.0012959291     1     7     4     3
 -0.0016096918     1     7     4     4
 -0.0007688307     1     7     4     6
 -0.0002001332     1     7     4     8
 0.0006884930     1     7     4     9
 0.0011416168     1     7     4    10
 -0.0019175362     1     7     5     5
 -0.0005769330     1     7     5    11
 -0.0225522613     1     7     6     1
 0.0023553354     1     7     6     2
 0.0011804550     1     7     6     3
 0.0004061847     1     7     6     4
 -0.0007662813     1     7     6     6
 0.0000277087     1     7     6     8
 0.0005807220     1     7     6     9
 0.0005295447     1     7     6    10
 -0.3077065261     1     7     7     1
 0.0043416509     1     7     7     2
 -0.0022197315     1     7     7     3
 0.0017743853     1     7     7     4
 -0.0015988700     1     7     7     6
 0.0008320061     1     7     7     8
 0.0004829234     1     7     7     9
 -0.0006876503     1     7     7    10
 0.0753862255     1     7     8     1
 -0.0032259474     1     7     8     2
 0.0000645995     1     7     8     3
 -0.0013165399     1     7     8     4
 0.0009065489     1     7     8     6
 -0.0011513221     1     7     8     8
 -0.0003581819     1     7     8     9
 -0.0002901001     1     7     8    10
 -0.0474433889     1     7     9     1
 0.0013732652     1     7     9     2
 -0.0016360845     1     7     9     3
 0.0005468282     1     7     9     4
 -0.0003611705     1     7     9     6
 0.0004017391     1     7     9     8
 0.0000743966     1     7     9     9
 0.0005881549     1     7     9    10
 -0.0517990851     1     7    10     1
 0.0018831266     1     7    10     2
 -0.0012775575     1     7    10     3
 0.0023092983     1     7    10     4
 -0.0001280393     1     7    10     6
 -0.0000756787     1     7    10     8
 0.0007419670     1     7    10     9
 -0.0007722943     1     7    10    10
 -0.0012687700     1     7    11     5
 -0.0014475967     1     7    11    11
 -0.0548737062     1     8     2     1
 0.0000846636     1     8     2     2
 -0.0018639519     1     8     2     3
 -0.0011021119     1     8     2     4
 -0.0001937755     1     8     2     6
 -0.0002530377     1     8     2     7
 0.0001362017     1     8     2     9
 -0.0004306997     1     8     2    10
 0.0796932201     1     8     3     1
 -0.0071924546     1     8     3     2
 -0.0005856427     1     8     3     3
 0.0019452097     1     8     3     4
 0.0016844887     1     8     3     6
 -0.0008588849     1     8     3     7
 -0.0004615143     1     8     3     9
 -0.0018701235     1     8     3    10
 0.0935692745     1     8     4     1
 -0.0087719163     1     8     4     2
 0.0043645108     1     8     4     3
 -0.0040465635     1     8     4     4
 0.0011065646     1     8     4     6
 0.0002001332     1     8     4     7
 -0.0017267925     1     8     4     9
 0.0015638037     1     8     4    10
 -0.0056683861     1     8     5     5
 -0.0035322281     1     8     5    11
 0.1295077093     1     8     6     1
 -0.0043176783     1     8     6     2
 0.0002528413     1     8     6     3
 -0.0027849139     1     8     6     4
 0.0008725191     1     8     6     6
 -0.0000277087     1     8     6     7
 -0.0008572727     1     8     6     9
 0.0004341747     1     8     6    10
 0.0753862255     1     8     7     1
 -0.0034914166     1     8     7     2
 -0.0007855037     1     8     7     3
 -0.0011066832     1     8     7     4
 0.0008792940     1     8     7     6
 -0.0008320061     1     8     7     7
 -0.0007580867     1     8     7     9
 -0.0002144276     1     8     7    10
 -0.3910387904     1     8     8     1
 0.0044266242     1     8     8     2
 0.0019789829     1     8     8     3
 0.0044489038     1     8     8     4
 0.0001574892     1     8     8     6
 0.0011513221     1     8     8     7
 0.0012983048     1     8     8     9
 -0.0007049949     1     8     8    10
 0.0113885337     1     8     9     1
 -0.0013122989     1     8     9     2
 -0.0001100646     1     8     9     3
 0.0000330290     1     8     9     4
 0.0004330637     1     8     9     6
 -0.0004017391     1     8     9     7
 0.0000319406     1     8     9     9
 -0.0008622841     1     8     9    10
 -0.0254109752     1     8    10     1
 0.0022806896     1     8    10     2
 -0.0012444566     1     8    10     3
 0.0022391201     1     8    10     4
 -0.0003294635     1     8    10     6
 0.0000756787     1     8    10     7
 0.0003377488     1     8    10     9
 -0.0018083867     1     8    10    10
 -0.0025188542     1     8    11     5
 -0.0007254372     1     8    11    11
 -0.0673306091     1     9     2     1
 0.0000292225     1     9     2     2
 0.0008033828     1     9     2     3
 0.0007270989     1     9     2     4
 0.0001967915     1     9     2     6
 0.0001174033     1     9     2     7
 -0.0001362017     1     9     2     8
 -0.0002941131     1     9     2    10
 -0.0190079449     1     9     3     1
 0.0036233408     1     9     3     2
 -0.0006555618     1     9     3     3
 -0.0005783100     1     9     3     4
 -0.0009536460     1     9     3     6
 0.0000651481     1     9     3     7
 0.0004615143     1     9     3     8
 0.0004298715     1     9     3    10
 -0.0441905430     1     9     4     1
 0.0020016453     1     9     4     2
 -0.0011907660     1     9     4     3
 -0.0051927197     1     9     4     4
 -0.0022706630     1     9     4     6
 -0.0006884930     1     9     4     7
 0.0017267925     1     9     4     8
 0.0026371626     1     9     4    10
 -0.0076469953     1     9     5     5
 -0.0039225344     1     9     5    11
 0.0255083365     1     9     6     1
 0.0009940334     1     9     6     2
 -0.0007310243     1     9     6     3
 -0.0012361209     1     9     6     4
 -0.0011214462     1     9     6     6
 -0.0005807220     1     9     6     7
 0.0008572727     1     9     6     8
 0.0007226036     1     9     6    10
 -0.0474433889     1     9     7     1
 0.0015015856     1     9     7     2
 -0.0015401684     1     9     7     3
 -0.0001128226     1     9     7     4
 -0.0009406663     1     9     7     6
 -0.0004829234     1     9     7     7
 0.0007580867     1     9     7     8
 -0.0001528834     1     9     7    10
 0.0113885337     1     9     8     1
 -0.0014497681     1     9     8     2
 0.0003031650     1     9     8     3
 0.0017262964     1     9     8     4
 0.0012900952     1     9     8     6
 0.0003581819     1     9     8     7
 -0.0012983048     1     9     8     8
 -0.0012004601     1     9     8    10
 -0.3719495585     1     9     9     1
 0.0006406857     1     9     9     2
 -0.0008266616     1     9     9     3
 0.0010198707     1     9     9     4
 0.0001030218     1     9     9     6
 -0.0000743966     1     9     9     7
 -0.0000319406     1     9     9     8
 -0.0003226346     1     9     9    10
 -0.0143319832     1     9    10     1
 -0.0003376118     1     9    10     2
 -0.0025123001     1     9    10     3
 0.0031043263     1     9    10     4
 0.0007831240     1     9    10     6
 -0.0007419670     1     9    10     7
 -0.0003377488     1     9    10     8
 -0.0023082222     1     9    10    10
 -0.0030492429     1     9    11     5
 -0.0021011565     1     9    11    11
 -0.0263793950     1    10     2     1
 0.0038760689     1    10     2     2
 0.0023023434     1    10     2     3
 -0.0028180285     1    10     2     4
 -0.0009225569     1    10     2     6
 0.0003409214     1    10     2     7
 0.0004306997     1    10     2     8
 0.0002941131     1    10     2     9
 -0.1085263530     1    10     3     1
 0.0102669027     1    10     3     2
 0.0017336176     1    10     3     3
 0.0014480409     1    10     3     4
 -0.0020416067     1    10     3     6
 0.0006344614     1    10     3     7
 0.0018701235     1    10     3     8
 -0.0004298715     1    10     3     9
 0.2040745642     1    10     4     1
 -0.0167945522     1    10     4     2
 0.0012944550     1    10     4     3
 -0.0039488315     1    10     4     4
 0.0029194647     1    10     4     6
 -0.0011416168     1    10     4     7
 -0.0015638037     1    10     4     8
 -0.0026371626     1    10     4     9
 0.0009135434     1    10     5     5
 0.0002267595     1    10     5    11
 0.0760082689     1    10     6     1
 -0.0046053022     1    10     6     2
 0.0010984608     1    10     6     3
 -0.0028083896     1    10     6     4
 0.0011711324     1    10     6     6
 -0.0005295447     1    10     6     7
 -0.0004341747     1    10     6     8
 -0.0007226036     1    10     6     9
 -0.0517990851     1    10     7     1
 0.0022219840     1    10     7     2
 -0.0007111907     1    10     7     3
 0.0011591363     1    10     7     4
 -0.0006569210     1    10     7     6
 0.0006876503     1    10     7     7
 0.0002144276     1    10     7     8
 0.0001528834     1    10     7     9
 -0.0254109752     1    10     8     1
 0.0027071245     1    10     8     2
 0.0006868424     1    10     8     3
 0.0006911098     1    10     8     4
 -0.0007626394     1    10     8     6
 0.0002901001     1    10     8     7
 0.0007049949     1    10     8     8
 0.0012004601     1    10     8     9
 -0.0143319832     1    10     9     1
 -0.0000588937     1    10     9     2
 -0.0030190122     1    10     9     3
 0.0004474270     1    10     9     4
 0.0000626447     1    10     9     6
 -0.0005881549     1    10     9     7
 0.0008622841     1    10     9     8
 0.0003226346     1    10     9     9
 -0.4707410021     1    10    10     1
 0.0107012382     1    10    10     2
 -0.0024633165     1    10    10     3
 0.0017027141     1    10    10     4
 -0.0039195703     1    10    10     6
 0.0007722943     1    10    10     7
 0.0018083867     1    10    10     8
 0.0023082222     1    10    10     9
 0.0001361226     1    10    11     5
 0.0003831554     1    10    11    11
 0.0043548397     1    11     2     5
 -0.0016706469     1    11     3     5
 -0.0002952454     1    11     4     5
 -0.2567486069     1    11     5     1
 0.0217667862     1    11     5     2
 -0.0038365875     1    11     5     3
 0.0046095991     1    11     5     4
 -0.0050195593     1    11     5     6
 0.0005769330     1    11     5     7
 0.0035322281     1    11     5     8
 0.0039225344     1    11     5     9
 -0.0002267595     1    11     5    10
 0.0014275177     1    11     6     5
 -0.0006780757     1    11     7     5
 0.0010687804     1    11     8     5
 0.0008925686     1    11     9     5
 -0.0000251160     1    11    10     5
 -0.4960437102     1    11    11     1
 0.0109854648     1    11    11     2
 0.0000211137     1    11    11     3
 0.0043662969     1    11    11     4
 -0.0030655564     1    11    11     6
 0.0014475967     1    11    11     7
 0.0007254372     1    11    11     8
 0.0021011565     1    11    11     9
 -0.0003831554     1    11    11    10
 -0.9889790793     2     1     1     2
 0.0163720619     2     1     1     3
 -0.0756576558     2     1     1     4
 0.1242606734     2     1     1     6
 -0.0428853838     2     1     1     7
 -0.0548737062     2     1     1     8
 -0.0673306091     2     1     1     9
 -0.0263793950     2     1     1    10
 -0.0038282659     2     1     3     2
 -0.0304981049     2     1     3     3
 0.0029933222     2     1     3     4
 -0.0023895035     2     1     3     6
 -0.0086891478     2     1     3     7
 0.0048679762     2     1     3     8
 -0.0025667669     2     1     3     9
 -0.0072902300     2     1     3    10
 0.0040851418     2     1     4     2
 0.0034180059     2     1     4     3
 -0.0333944674     2     1     4     4
 -0.0089535912     2     1     4     6
 -0.0013297572     2     1     4     7
 0.0070457652     2     1     4     8
 -0.0011422298     2     1     4     9
 0.0127449022     2     1     4    10
 -0.0419682730     2     1     5     5
 -0.0159407848     2     1     5    11
 0.0006078094     2     1     6     2
 -0.0037552636     2     1     6     3
 -0.0103998397     2     1     6     4
 -0.0045379310     2     1     6     6
 -0.0024595307     2     1     6     7
 0.0041201589     2     1     6     8
 -0.0007795166     2     1     6     9
 0.0036841177     2     1     6    10
 -0.0012478968     2     1     7     2
 -0.0113502483     2     1     7     3
 -0.0020078857     2     1     7     4
 -0.0023553354     2     1     7     6
 -0.0043416509     2     1     7     7
 0.0032259474     2     1     7     8
 -0.0013732652     2     1     7     9
 -0.0018831266     2     1     7    10
 -0.0000846636     2     1     8     2
 0.0071924546     2     1     8     3
 0.0087719163     2     1     8     4
 0.0043176783     2     1     8     6
 0.0034914166     2     1     8     7
 -0.0044266242     2     1     8     8
 0.0013122989     2     1     8     9
 -0.0022806896     2     1     8    10
 -0.0000292225     2     1     9     2
 -0.0036233408     2     1     9     3
 -0.0020016453     2     1     9     4
 -0.0009940334     2     1     9     6
 -0.0015015856     2     1     9     7
 0.0014497681     2     1     9     8
 -0.0006406857     2     1     9     9
 0.0003376118     2     1     9    10
 -0.0038760689     2     1    10     2
 -0.0102669027     2     1    10     3
 0.0167945522     2     1    10     4
 0.0046053022     2     1    10     6
 -0.0022219840     2     1    10     7
 -0.0027071245     2     1    10     8
 0.0000588937     2     1    10     9
 -0.0107012382     2     1    10    10
 -0.0217667862     2     1    11     5
 -0.0109854648     2     1    11    11
 0.9889790793     2     2     1     1
 0.0038282659     2     2     1     3
 -0.0040851418     2     2     1     4
 -0.0006078094     2     2     1     6
 0.0012478968     2     2     1     7
 0.0000846636     2     2     1     8
 0.0000292225     2     2     1     9
 0.0038760689     2     2     1    10
 0.0038282659     2     2     3     1
 0.5146636681     2     2     3     3
 -0.0190944511     2     2     3     4
 0.0276414297     2     2     3     6
 0.0622802631     2     2     3     7
 -0.0247983945     2     2     3     8
 -0.0030940660     2     2     3     9
 0.0364492138     2     2     3    10
 -0.0040851418     2     2     4     1
 -0.0190944511     2     2     4     3
 0.5311706329     2     2     4     4
 0.0582438468     2     2     4     6
 0.0170613948     2     2     4     7
 -0.0351658925     2     2     4     8
 0.0185310623     2     2     4     9
 -0.0799864255     2     2     4    10
 0.5766589654     2     2     5     5
 0.1008160723     2     2     5    11
 -0.0006078094     2     2     6     1
 0.0276414297     2     2     6     3
 0.0582438468     2     2     6     4
 0.3009054821     2     2     6     6
 0.0049602291     2     2     6     7
 -0.0750765468     2     2     6     8
 -0.0151202611     2     2     6     9
 -0.0401194469     2     2     6    10
 0.0012478968     2     2     7     1
 0.0622802631     2     2     7     3
 0.0170613948     2     2     7     4
 0.0049602291     2     2     7     6
 0.2683871456     2     2     7     7
 -0.0466706409     2     2     7     8
 0.0291417773     2     2     7     9
 0.0347971700     2     2     7    10
 0.0000846636     2     2     8     1
 -0.0247983945     2     2     8     3
 -0.0351658925     2     2     8     4