&FCI NORB= 13,NELEC= 10,MS2=0,
 ORBSYM=1,1,1,1,1,1,1,1,1,1,1,1,1
 ISYM=1,
&END
 0.9839923860     1     1     2     2
 0.0689311670     1     1     2     4
 -0.1483817109     1     1     2     6
 -0.1183906861     1     1     2     9
 0.0400143849     1     1     2    10
 -0.0693138128     1     1     2    12
 0.8670430289     1     1     3     3
 0.1791184452     1     1     3     7
 0.1071726029     1     1     3     8
 0.2529033609     1     1     3    13
 0.0689311670     1     1     4     2
 0.9533653987     1     1     4     4
 0.0808057376     1     1     4     6
 0.0638690812     1     1     4     9
 -0.2687718976     1     1     4    10
 0.0402715110     1     1     4    12
 1.0035391749     1     1     5     5
 -0.3465065872     1     1     5    11
 -0.1483817109     1     1     6     2
 0.0808057376     1     1     6     4
 0.3477853257     1     1     6     6
 0.1071897885     1     1     6     9
 -0.0898943055     1     1     6    10
 0.0571427700     1     1     6    12
 0.1791184452     1     1     7     3
 0.3252905106     1     1     7     7
 0.0988020415     1     1     7     8
 0.1675845996     1     1     7    13
 0.1071726029     1     1     8     3
 0.0988020415     1     1     8     7
 0.4543105641     1     1     8     8
 0.0846825956     1     1     8    13
 -0.1183906861     1     1     9     2
 0.0638690812     1     1     9     4
 0.1071897885     1     1     9     6
 0.4543837009     1     1     9     9
 -0.0560501673     1     1     9    10
 0.0197633956     1     1     9    12
 0.0400143849     1     1    10     2
 -0.2687718976     1     1    10     4
 -0.0898943055     1     1    10     6
 -0.0560501673     1     1    10     9
 0.5357654051     1     1    10    10
 -0.0456889701     1     1    10    12
 -0.3465065872     1     1    11     5
 0.6615331646     1     1    11    11
 -0.0693138128     1     1    12     2
 0.0402715110     1     1    12     4
 0.0571427700     1     1    12     6
 0.0197633956     1     1    12     9
 -0.0456889701     1     1    12    10
 0.4314101945     1     1    12    12
 0.2529033609     1     1    13     3
 0.1675845996     1     1    13     7
 0.0846825956     1     1    13     8
 0.5461628680     1     1    13    13
 -0.9839923860     1     2     2     1
 -0.0069319350     1     2     2     4
 -0.0016346150     1     2     2     6
 -0.0019706074     1     2     2     9
 0.0056972410     1     2     2    10
 -0.0014962014     1     2     2    12
 0.0306642951     1     2     3     3
 0.0132112341     1     2     3     7
 0.0117303154     1     2     3     8
 0.0240403635     1     2     3    13
 -0.0689311670     1     2     4     1
 0.0359380378     1     2     4     4
 0.0073837295     1     2     4     6
 0.0080104198     1     2     4     9
 -0.0226540816     1     2     4    10
 0.0059848602     1     2     4    12
 0.0411715968     1     2     5     5
 -0.0293334603     1     2     5    11
 0.1483817109     1     2     6     1
 0.0073805393     1     2     6     4
 0.0017672196     1     2     6     6
 0.0021510193     1     2     6     9
 -0.0052367431     1     2     6    10
 0.0014619588     1     2     6    12
 0.0099709427     1     2     7     3
 0.0049150571     1     2     7     7
 0.0043383181     1     2     7     8
 0.0092231505     1     2     7    13
 0.0079936391     1     2     8     3
 0.0038581375     1     2     8     7
 0.0033873846     1     2     8     8
 0.0066386399     1     2     8    13
 0.1183906861     1     2     9     1
 0.0071316336     1     2     9     4
 0.0018826233     1     2     9     6
 0.0016775232     1     2     9     9
 -0.0053323833     1     2     9    10
 0.0014208936     1     2     9    12
 -0.0400143849     1     2    10     1
 -0.0173168713     1     2    10     4
 -0.0037265005     1     2    10     6
 -0.0043837192     1     2    10     9
 0.0134830249     1     2    10    10
 -0.0026995059     1     2    10    12
 -0.0220026291     1     2    11     5
 0.0191677084     1     2    11    11
 0.0693138128     1     2    12     1
 0.0043855384     1     2    12     4
 0.0010034490     1     2    12     6
 0.0011188172     1     2    12     9
 -0.0025514393     1     2    12    10
 0.0006282226     1     2    12    12
 0.0159276660     1     2    13     3
 0.0081541627     1     2    13     7
 0.0066123309     1     2    13     8
 0.0150964035     1     2    13    13
 0.0025860946     1     3     2     7
 0.0032280716     1     3     2     8
 0.0070364138     1     3     2    13
 -0.8670430289     1     3     3     1
 -0.0306642951     1     3     3     2
 -0.0104776895     1     3     3     4
 0.0045214449     1     3     3     6
 0.0002005160     1     3     3     9
 0.0025218593     1     3     3    10
 0.0049675439     1     3     3    12
 -0.0013008485     1     3     4     7
 -0.0049976209     1     3     4     8
 -0.0002815069     1     3     4    13
 0.0021117822     1     3     6     7
 -0.0004335844     1     3     6     8
 0.0019130908     1     3     6    13
 -0.1791184452     1     3     7     1
 -0.0099709427     1     3     7     2
 -0.0035269862     1     3     7     4
 0.0045730936     1     3     7     6
 0.0025815816     1     3     7     9
 -0.0001624706     1     3     7    10
 0.0016834186     1     3     7    12
 -0.1071726029     1     3     8     1
 -0.0079936391     1     3     8     2
 -0.0025359188     1     3     8     4
 0.0027767600     1     3     8     6
 0.0046680902     1     3     8     9
 -0.0038672579     1     3     8    10
 0.0035121726     1     3     8    12
 0.0019677419     1     3     9     7
 0.0028924020     1     3     9     8
 0.0049435044     1     3     9    13
 0.0001997755     1     3    10     7
 -0.0005271017     1     3    10     8
 0.0012532803     1     3    10    13
 -0.0008389085     1     3    12     7
 0.0006327756     1     3    12     8
 -0.0013152858     1     3    12    13
 -0.2529033609     1     3    13     1
 -0.0159276660     1     3    13     2
 -0.0055670505     1     3    13     4
 0.0062032403     1     3    13     6
 0.0058454193     1     3    13     9
 0.0013943959     1     3    13    10
 0.0031284103     1     3    13    12
 -0.0689311670     1     4     2     1
 0.0069319350     1     4     2     2
 -0.0004635880     1     4     2     6
 0.0004348284     1     4     2     9
 -0.0041883050     1     4     2    10
 0.0013248029     1     4     2    12
 0.0104776895     1     4     3     3
 0.0023882444     1     4     3     7
 -0.0023794344     1     4     3     8
 0.0056348253     1     4     3    13
 -0.9533653987     1     4     4     1
 -0.0359380378     1     4     4     2
 0.0092934803     1     4     4     6
 0.0097271233     1     4     4     9
 -0.0067149199     1     4     4    10
 0.0003436071     1     4     4    12
 0.0138232006     1     4     5     5
 -0.0093675149     1     4     5    11
 -0.0808057376     1     4     6     1
 -0.0073805393     1     4     6     2
 0.0041533326     1     4     6     6
 0.0029221874     1     4     6     9
 -0.0038062692     1     4     6    10
 0.0011429558     1     4     6    12
 0.0035269862     1     4     7     3
 0.0027703746     1     4     7     7
 0.0011711523     1     4     7     8
 0.0035635714     1     4     7    13
 0.0025359188     1     4     8     3
 0.0029064354     1     4     8     7
 0.0028371051     1     4     8     8
 0.0072047766     1     4     8    13
 -0.0638690812     1     4     9     1
 -0.0071316336     1     4     9     2
 0.0030127624     1     4     9     6
 0.0060486969     1     4     9     9
 -0.0020116284     1     4     9    10
 0.0007483099     1     4     9    12
 0.2687718976     1     4    10     1
 0.0173168713     1     4    10     2
 -0.0083542907     1     4    10     6
 -0.0067342887     1     4    10     9
 0.0029114523     1     4    10    10
 -0.0047830891     1     4    10    12
 -0.0077783018     1     4    11     5
 0.0065585683     1     4    11    11
 -0.0402715110     1     4    12     1
 -0.0043855384     1     4    12     2
 0.0026914220     1     4    12     6
 0.0023214098     1     4    12     9
 -0.0058114792     1     4    12    10
 0.0034693402     1     4    12    12
 0.0055670505     1     4    13     3
 0.0026464594     1     4    13     7
 0.0032778443     1     4    13     8
 0.0039817762     1     4    13    13
 -0.0059155824     1     5     2    11
 -0.0011508865     1     5     4    11
 -1.0035391749     1     5     5     1
 -0.0411715968     1     5     5     2
 -0.0138232006     1     5     5     4
 0.0089604459     1     5     5     6
 0.0119208528     1     5     5     9
 0.0029328817     1     5     5    10
 0.0065747219     1     5     5    12
 -0.0023297619     1     5     6    11
 0.0023207076     1     5     9    11
 0.0016324563     1     5    10    11
 0.3465065872     1     5    11     1
 0.0220026291     1     5    11     2
 0.0077783018     1     5    11     4
 -0.0089871600     1     5    11     6
 -0.0065726563     1     5    11     9
 -0.0000655377     1     5    11    10
 -0.0039822596     1     5    11    12
 0.0009356666     1     5    12    11
 0.1483817109     1     6     2     1
 0.0016346150     1     6     2     2
 0.0004635880     1     6     2     4
 0.0002966060     1     6     2     9
 -0.0015202656     1     6     2    10
 0.0004755095     1     6     2    12
 -0.0045214449     1     6     3     3
 -0.0024479291     1     6     3     7
 -0.0032257625     1     6     3     8
 -0.0043257134     1     6     3    13
 -0.0808057376     1     6     4     1
 -0.0073837295     1     6     4     2
 -0.0092934803     1     6     4     4
 -0.0001203217     1     6     4     9
 0.0046282507     1     6     4    10
 -0.0015520182     1     6     4    12
 -0.0089604459     1     6     5     5
 0.0066033776     1     6     5    11
 -0.3477853257     1     6     6     1
 -0.0017672196     1     6     6     2
 -0.0041533326     1     6     6     4
 -0.0003822315     1     6     6     9
 0.0018975478     1     6     6    10
 -0.0004284310     1     6     6    12
 -0.0045730936     1     6     7     3
 -0.0017794729     1     6     7     7
 -0.0017604677     1     6     7     8
 -0.0036006647     1     6     7    13
 -0.0027767600     1     6     8     3
 -0.0008499737     1     6     8     7
 -0.0006044416     1     6     8     8
 -0.0010801547     1     6     8    13
 -0.1071897885     1     6     9     1
 -0.0018826233     1     6     9     2
 -0.0030127624     1     6     9     4
 0.0007015371     1     6     9     9
 0.0016083221     1     6     9    10
 -0.0003483440     1     6     9    12
 0.0898943055     1     6    10     1
 0.0037265005     1     6    10     2
 0.0083542907     1     6    10     4
 0.0005858662     1     6    10     9
 -0.0051588107     1     6    10    10
 0.0002401700     1     6    10    12
 0.0089871600     1     6    11     5
 -0.0068735477     1     6    11    11
 -0.0571427700     1     6    12     1
 -0.0010034490     1     6    12     2
 -0.0026914220     1     6    12     4
 -0.0001464136     1     6    12     9
 0.0004003985     1     6    12    10
 0.0004059479     1     6    12    12
 -0.0062032403     1     6    13     3
 -0.0028298914     1     6    13     7
 -0.0021007142     1     6    13     8
 -0.0053972173     1     6    13    13
 -0.0025860946     1     7     2     3
 0.0004757909     1     7     2     8
 0.0010156140     1     7     2    13
 -0.1791184452     1     7     3     1
 -0.0132112341     1     7     3     2
 -0.0023882444     1     7     3     4
 0.0024479291     1     7     3     6
 0.0005897540     1     7     3     9
 -0.0003118638     1     7     3    10
 0.0025107765     1     7     3    12
 0.0013008485     1     7     4     3
 -0.0017363877     1     7     4     8
 0.0008851798     1     7     4    13
 -0.0021117822     1     7     6     3
 -0.0009087518     1     7     6     8
 -0.0007657096     1     7     6    13
 -0.3252905106     1     7     7     1
 -0.0049150571     1     7     7     2
 -0.0027703746     1     7     7     4
 0.0017794729     1     7     7     6
 0.0009303674     1     7     7     9
 0.0006142346     1     7     7    10
 0.0005965965     1     7     7    12
 -0.0988020415     1     7     8     1
 -0.0038581375     1     7     8     2
 -0.0029064354     1     7     8     4
 0.0008499737     1     7     8     6
 0.0016158773     1     7     8     9
 -0.0005469427     1     7     8    10
 0.0012679779     1     7     8    12
 -0.0019677419     1     7     9     3
 0.0005444859     1     7     9     8
 0.0005943037     1     7     9    13
 -0.0001997755     1     7    10     3
 -0.0003008959     1     7    10     8
 0.0003775020     1     7    10    13
 0.0008389085     1     7    12     3
 0.0005632634     1     7    12     8
 0.0000721102     1     7    12    13
 -0.1675845996     1     7    13     1
 -0.0081541627     1     7    13     2
 -0.0026464594     1     7    13     4
 0.0028298914     1     7    13     6
 0.0026691940     1     7    13     9
 0.0005408234     1     7    13    10
 0.0014380226     1     7    13    12
 -0.0032280716     1     8     2     3
 -0.0004757909     1     8     2     7
 -0.0000089541     1     8     2    13
 -0.1071726029     1     8     3     1
 -0.0117303154     1     8     3     2
 0.0023794344     1     8     3     4
 0.0032257625     1     8     3     6
 0.0017905248     1     8     3     9
 -0.0033130077     1     8     3    10
 0.0028869261     1     8     3    12
 0.0049976209     1     8     4     3
 0.0017363877     1     8     4     7
 0.0039032480     1     8     4    13
 0.0004335844     1     8     6     3
 0.0009087518     1     8     6     7
 0.0010256701     1     8     6    13
 -0.0988020415     1     8     7     1
 -0.0043383181     1     8     7     2
 -0.0011711523     1     8     7     4
 0.0017604677     1     8     7     6
 0.0010741483     1     8     7     9
 -0.0002531068     1     8     7    10
 0.0007076933     1     8     7    12
 -0.4543105641     1     8     8     1
 -0.0033873846     1     8     8     2
 -0.0028371051     1     8     8     4
 0.0006044416     1     8     8     6
 0.0012430828     1     8     8     9
 -0.0002016168     1     8     8    10
 0.0009525546     1     8     8    12
 -0.0028924020     1     8     9     3
 -0.0005444859     1     8     9     7
 -0.0004805325     1     8     9    13
 0.0005271017     1     8    10     3
 0.0003008959     1     8    10     7
 0.0008277904     1     8    10    13
 -0.0006327756     1     8    12     3
 -0.0005632634     1     8    12     7
 -0.0009271964     1     8    12    13
 -0.0846825956     1     8    13     1
 -0.0066123309     1     8    13     2
 -0.0032778443     1     8    13     4
 0.0021007142     1     8    13     6
 0.0019294470     1     8    13     9
 0.0011586052     1     8    13    10
 0.0010432081     1     8    13    12
 0.1183906861     1     9     2     1
 0.0019706074     1     9     2     2
 -0.0004348284     1     9     2     4
 -0.0002966060     1     9     2     6
 -0.0009749210     1     9     2    10
 0.0003034983     1     9     2    12
 -0.0002005160     1     9     3     3
 -0.0005897540     1     9     3     7
 -0.0017905248     1     9     3     8
 -0.0009196107     1     9     3    13
 -0.0638690812     1     9     4     1
 -0.0080104198     1     9     4     2
 -0.0097271233     1     9     4     4
 0.0001203217     1     9     4     6
 0.0047694232     1     9     4    10
 -0.0015483243     1     9     4    12
 -0.0119208528     1     9     5     5
 0.0087886337     1     9     5    11
 -0.1071897885     1     9     6     1
 -0.0021510193     1     9     6     2
 -0.0029221874     1     9     6     4
 0.0003822315     1     9     6     6
 0.0010241754     1     9     6    10
 -0.0002019366     1     9     6    12
 -0.0025815816     1     9     7     3
 -0.0009303674     1     9     7     7
 -0.0010741483     1     9     7     8
 -0.0020707027     1     9     7    13
 -0.0046680902     1     9     8     3
 -0.0016158773     1     9     8     7
 -0.0012430828     1     9     8     8
 -0.0024065080     1     9     8    13
 -0.4543837009     1     9     9     1
 -0.0016775232     1     9     9     2
 -0.0060486969     1     9     9     4
 -0.0007015371     1     9     9     6
 0.0035735043     1     9     9    10
 -0.0008265461     1     9     9    12
 0.0560501673     1     9    10     1
 0.0043837192     1     9    10     2
 0.0067342887     1     9    10     4
 -0.0005858662     1     9    10     6
 -0.0040195454     1     9    10    10
 -0.0001064142     1     9    10    12
 0.0065726563     1     9    11     5
 -0.0051141903     1     9    11    11
 -0.0197633956     1     9    12     1
 -0.0011188172     1     9    12     2
 -0.0023214098     1     9    12     4
 0.0001464136     1     9    12     6
 0.0000761016     1     9    12    10
 0.0005030826     1     9    12    12
 -0.0058454193     1     9    13     3
 -0.0026691940     1     9    13     7
 -0.0019294470     1     9    13     8
 -0.0051043639     1     9    13    13
 -0.0400143849     1    10     2     1
 -0.0056972410     1    10     2     2
 0.0041883050     1    10     2     4
 0.0015202656     1    10     2     6
 0.0009749210     1    10     2     9
 -0.0001208814     1    10     2    12
 -0.0025218593     1    10     3     3
 0.0003118638     1    10     3     7
 0.0033130077     1    10     3     8
 -0.0002520114     1    10     3    13
 0.2687718976     1    10     4     1
 0.0226540816     1    10     4     2
 0.0067149199     1    10     4     4
 -0.0046282507     1    10     4     6
 -0.0047694232     1    10     4     9
 0.0009854926     1    10     4    12
 -0.0029328817     1    10     5     5
 0.0018139379     1    10     5    11
 0.0898943055     1    10     6     1
 0.0052367431     1    10     6     2
 0.0038062692     1    10     6     4
 -0.0018975478     1    10     6     6
 -0.0010241754     1    10     6     9
 -0.0001579058     1    10     6    12
 0.0001624706     1    10     7     3
 -0.0006142346     1    10     7     7
 0.0002531068     1    10     7     8
 -0.0001613155     1    10     7    13
 0.0038672579     1    10     8     3
 0.0005469427     1    10     8     7
 0.0002016168     1    10     8     8
 -0.0003252613     1    10     8    13
 0.0560501673     1    10     9     1
 0.0053323833     1    10     9     2
 0.0020116284     1    10     9     4
 -0.0016083221     1    10     9     6
 -0.0035735043     1    10     9     9
 -0.0001827427     1    10     9    12
 -0.5357654051     1    10    10     1
 -0.0134830249     1    10    10     2
 -0.0029114523     1    10    10     4
 0.0051588107     1    10    10     6
 0.0040195454     1    10    10     9
 0.0028518730     1    10    10    12
 0.0000655377     1    10    11     5
 -0.0001102407     1    10    11    11
 0.0456889701     1    10    12     1
 0.0025514393     1    10    12     2
 0.0058114792     1    10    12     4
 -0.0004003985     1    10    12     6
 -0.0000761016     1    10    12     9
 -0.0013274350     1    10    12    12
 -0.0013943959     1    10    13     3
 -0.0005408234     1    10    13     7
 -0.0011586052     1    10    13     8
 -0.0003975270     1    10    13    13
 0.0059155824     1    11     2     5
 0.0011508865     1    11     4     5
 0.3465065872     1    11     5     1
 0.0293334603     1    11     5     2
 0.0093675149     1    11     5     4
 -0.0066033776     1    11     5     6
 -0.0087886337     1    11     5     9
 -0.0018139379     1    11     5    10
 -0.0048647421     1    11     5    12
 0.0023297619     1    11     6     5
 -0.0023207076     1    11     9     5
 -0.0016324563     1    11    10     5
 -0.6615331646     1    11    11     1
 -0.0191677084     1    11    11     2
 -0.0065585683     1    11    11     4
 0.0068735477     1    11    11     6
 0.0051141903     1    11    11     9
 0.0001102407     1    11    11    10
 0.0030747582     1    11    11    12
 -0.0009356666     1    11    12     5
 0.0693138128     1    12     2     1
 0.0014962014     1    12     2     2
 -0.0013248029     1    12     2     4
 -0.0004755095     1    12     2     6
 -0.0003034983     1    12     2     9
 0.0001208814     1    12     2    10
 -0.0049675439     1    12     3     3
 -0.0025107765     1    12     3     7
 -0.0028869261     1    12     3     8
 -0.0044459952     1    12     3    13
 -0.0402715110     1    12     4     1
 -0.0059848602     1    12     4     2
 -0.0003436071     1    12     4     4
 0.0015520182     1    12     4     6
 0.0015483243     1    12     4     9
 -0.0009854926     1    12     4    10
 -0.0065747219     1    12     5     5
 0.0048647421     1    12     5    11
 -0.0571427700     1    12     6     1
 -0.0014619588     1    12     6     2
 -0.0011429558     1    12     6     4
 0.0004284310     1    12     6     6
 0.0002019366     1    12     6     9
 0.0001579058     1    12     6    10
 -0.0016834186     1    12     7     3
 -0.0005965965     1    12     7     7
 -0.0007076933     1    12     7     8
 -0.0013743749     1    12     7    13
 -0.0035121726     1    12     8     3
 -0.0012679779     1    12     8     7
 -0.0009525546     1    12     8     8
 -0.0019738707     1    12     8    13
 -0.0197633956     1    12     9     1
 -0.0014208936     1    12     9     2
 -0.0007483099     1    12     9     4
 0.0003483440     1    12     9     6
 0.0008265461     1    12     9     9
 0.0001827427     1    12     9    10
 0.0456889701     1    12    10     1
 0.0026995059     1    12    10     2
 0.0047830891     1    12    10     4
 -0.0002401700     1    12    10     6
 0.0001064142     1    12    10     9
 -0.0028518730     1    12    10    10
 0.0039822596     1    12    11     5
 -0.0030747582     1    12    11    11
 -0.4314101945     1    12    12     1
 -0.0006282226     1    12    12     2
 -0.0034693402     1    12    12     4
 -0.0004059479     1    12    12     6
 -0.0005030826     1    12    12     9
 0.0013274350     1    12    12    10
 -0.0031284103     1    12    13     3
 -0.0014380226     1    12    13     7
 -0.0010432081     1    12    13     8
 -0.0027983574     1    12    13    13
 -0.0070364138     1    13     2     3
 -0.0010156140     1    13     2     7
 0.0000089541     1    13     2     8
 -0.2529033609     1    13     3     1
 -0.0240403635     1    13     3     2
 -0.0056348253     1    13     3     4
 0.0043257134     1    13     3     6
 0.0009196107     1    13     3     9
 0.0002520114     1    13     3    10
 0.0044459952     1    13     3    12
 0.0002815069     1    13     4     3
 -0.0008851798     1    13     4     7
 -0.0039032480     1    13     4     8
 -0.0019130908     1    13     6     3
 0.0007657096     1    13     6     7
 -0.0010256701     1    13     6     8
 -0.1675845996     1    13     7     1
 -0.0092231505     1    13     7     2
 -0.0035635714     1    13     7     4
 0.0036006647     1    13     7     6
 0.0020707027     1    13     7     9
 0.0001613155     1    13     7    10
 0.0013743749     1    13     7    12
 -0.0846825956     1    13     8     1
 -0.0066386399     1    13     8     2
 -0.0072047766     1    13     8     4
 0.0010801547     1    13     8     6
 0.0024065080     1    13     8     9
 0.0003252613     1    13     8    10
 0.0019738707     1    13     8    12
 -0.0049435044     1    13     9     3
 -0.0005943037     1    13     9     7
 0.0004805325     1    13     9     8
 -0.0012532803     1    13    10     3
 -0.0003775020     1    13    10     7
 -0.0008277904     1    13    10     8
 0.0013152858     1    13    12     3
 -0.0000721102     1    13    12     7
 0.0009271964     1    13    12     8
 -0.5461628680     1    13    13     1
 -0.0150964035     1    13    13     2
 -0.0039817762     1    13    13     4
 0.0053972173     1    13    13     6
 0.0051043639     1    13    13     9
 0.0003975270     1    13    13    10
 0.0027983574     1    13    13    12
 -0.9839923860     2     1     1     2
 -0.0689311670     2     1     1     4
 0.1483817109     2     1     1     6
 0.1183906861     2     1     1     9
 -0.0400143849     2     1     1    10
 0.0693138128     2     1     1    12
 0.0306642951     2     1     3     3
 0.0099709427     2     1     3     7
 0.0079936391     2     1     3     8
 0.0159276660     2     1     3    13
 -0.0069319350     2     1     4     2
 0.0359380378     2     1     4     4
 0.0073805393     2     1     4     6
 0.0071316336     2     1     4     9
 -0.0173168713     2     1     4    10
 0.0043855384     2     1     4    12
 0.0411715968     2     1     5     5
 -0.0220026291     2     1     5    11
 -0.0016346150     2     1     6     2
 0.0073837295     2     1     6     4
 0.0017672196     2     1     6     6
 0.0018826233     2     1     6     9
 -0.0037265005     2     1     6    10
 0.0010034490     2     1     6    12
 0.0132112341     2     1     7     3
 0.0049150571     2     1     7     7
 0.0038581375     2     1     7     8
 0.0081541627     2     1     7    13
 0.0117303154     2     1     8     3
 0.0043383181     2     1     8     7
 0.0033873846     2     1     8     8
 0.0066123309     2     1     8    13
 -0.0019706074     2     1     9     2
 0.0080104198     2     1     9     4
 0.0021510193     2     1     9     6
 0.0016775232     2     1     9     9
 -0.0043837192     2     1     9    10
 0.0011188172     2     1     9    12
 0.0056972410     2     1    10     2
 -0.0226540816     2     1    10     4
 -0.0052367431     2     1    10     6
 -0.0053323833     2     1    10     9
 0.0134830249     2     1    10    10
 -0.0025514393     2     1    10    12
 -0.0293334603     2     1    11     5
 0.0191677084     2     1    11    11
 -0.0014962014     2     1    12     2
 0.0059848602     2     1    12     4
 0.0014619588     2     1    12     6
 0.0014208936     2     1    12     9
 -0.0026995059     2     1    12    10
 0.0006282226     2     1    12    12
 0.0240403635     2     1    13     3
 0.0092231505     2     1    13     7
 0.0066386399     2     1    13     8
 0.0150964035     2     1    13    13
 0.9839923860     2     2     1     1
 0.0069319350     2     2     1     4
 0.0016346150     2     2     1     6
 0.0019706074     2     2     1     9
 -0.0056972410     2     2     1    10
 0.0014962014     2     2     1    12
 0.5273081344     2     2     3     3
 0.0722875077     2     2     3     7
 0.0231387066     2     2     3     8
 0.0889981734     2     2     3    13
 0.0069319350     2     2     4     1
 0.5516401068     2     2     4     4
 0.0349167157     2     2     4     6
 0.0216869822     2     2     4     9
 -0.1012583215     2     2     4    10
 0.0045571631     2     2     4    12
 0.5802580066     2     2     5     5
 -0.1286081241     2     2     5    11
 0.0016346150     2     2     6     1
 0.0349167157     2     2     6     4
 0.3004828669     2     2     6     6
 0.0573276851     2     2     6     9
 -0.0522608237     2     2     6    10
 0.0289502558     2     2     6    12
 0.0722875077     2     2     7     3
 0.2840469297     2     2     7     7
 0.0605930879     2     2     7     8
 0.0899958955     2     2     7    13
 0.0231387066     2     2     8     3
 0.0605930879     2     2     8     7
 0.4058400842     2     2     8     8
 0.0347557755     2     2     8    13
 0.0019706074     2     2     9     1
 0.0216869822     2     2     9     4
 0.0573276851     2     2     9     6
 0.4064445119     2     2     9     9
 -0.0144420297     2     2     9    10
 -0.0050608040     2     2     9    12
 -0.0056972410     2     2    10     1
 -0.1012583215     2     2    10     4
 -0.0522608237     2     2    10     6
 -0.0144420297     2     2    10     9
 0.4053626594     2     2    10    10
 -0.0288996452     2     2    10    12
 -0.1286081241     2     2    11     5
 0.4736557302     2     2    11    11
 0.0014962014     2     2    12     1
 0.0045571631     2     2    12     4
 0.0289502558     2     2    12     6
 -0.0050608040     2     2    12     9
 -0.0288996452     2     2    12    10
 0.4043194030     2     2    12    12
 0.0889981734     2     2    13     3
 0.0899958955     2     2    13     7
 0.0347557755     2     2    13     8
 0.4054722089     2     2    13    13
 -0.0025860946     2     3     1     7
 -0.0032280716     2     3     1     8
 -0.0070364138     2     3     1    13
 -0.0306642951     2     3     3     1
 -0.5273081344     2     3     3     2
 -0.0020480612     2     3     3     4
 0.0665024612     2     3     3     6
 0.0715159378     2     3     3     9
 -0.0163613976     2     3     3    10
 0.0055504970     2     3     3    12
 0.0105897296     2     3     4     7
 0.0330457923     2     3     4     8
 0.0040624421     2     3     4    13
 -0.0339267617     2     3     6     7
 0.0001553665     2     3     6     8
 -0.0243532447     2     3     6    13
 -0.0132112341     2     3     7     1
 -0.0722875077     2     3     7     2
 0.0002274260     2     3     7     4
 -0.0186484099     2     3     7     6
 -0.0000826619     2     3     7     9
 -0.0005787656     2     3     7    10
 0.0095654343     2     3     7    12
 -0.0117303154     2     3     8     1
 -0.0231387066     2     3     8     2
 0.0043188657     2     3     8     4
 0.0037235364     2     3     8     6
 -0.0276460889     2     3     8     9
 0.0264420635     2     3     8    10
 -0.0156812582     2     3     8    12
 -0.0161204427     2     3     9     7
 -0.0292509888     2     3     9     8
 -0.0413879445     2     3     9    13
 0.0032475103     2     3    10     7
 0.0234020387     2     3    10     8
 -0.0062776512     2     3    10    13
 0.0049953223     2     3    12     7
 -0.0220038614     2     3    12     8
 -0.0007183655     2     3    12    13
 -0.0240403635     2     3    13     1
 -0.0889981734     2     3    13     2
 -0.0031016759     2     3    13     4
 -0.0047458483     2     3    13     6
 -0.0209816147     2     3    13     9
 -0.0120932807     2     3    13    10
 0.0066196934     2     3    13    12
 0.0689311670     2     4     1     1
 -0.0069319350     2     4     1     2
 0.0004635880     2     4     1     6