&FCI NORB=  6,NELEC=  6,MS2=0,
 ORBSYM=1,1,1,1,1,1
 ISYM=1,
&END
 0.1364113678     1     1     2     2
 0.0149014055     1     1     2     4
 0.0089805748     1     1     2     6
 0.1746779299     1     1     3     3
 -0.0311180114     1     1     3     5
 0.0149014055     1     1     4     2
 0.1952302646     1     1     4     4
 -0.0397371076     1     1     4     6
 -0.0311180114     1     1     5     3
 0.1899357072     1     1     5     5
 0.0089805748     1     1     6     2
 -0.0397371076     1     1     6     4
 0.2169714897     1     1     6     6
 -0.1364113678     1     2     2     1
 0.0490163787     1     2     2     3
 -0.0007195415     1     2     2     5
 -0.0444028785     1     2     3     4
 0.0212850494     1     2     3     6
 -0.0149014055     1     2     4     1
 -0.0127526280     1     2     4     3
 -0.0523159406     1     2     4     5
 -0.0384078315     1     2     5     4
 -0.0569073748     1     2     5     6
 -0.0089805748     1     2     6     1
 0.0159499830     1     2     6     3
 -0.0465716999     1     2     6     5
 -0.0490163787     1     3     2     2
 -0.0317657197     1     3     2     4
 0.0054381339     1     3     2     6
 -0.1746779299     1     3     3     1
 0.0310126844     1     3     3     5
 0.0127526280     1     3     4     2
 -0.0104512845     1     3     4     4
 0.0371551905     1     3     4     6
 0.0311180114     1     3     5     1
 -0.0006274821     1     3     5     5
 -0.0159499830     1     3     6     2
 0.0173860919     1     3     6     4
 -0.0223668126     1     3     6     6
 -0.0149014055     1     4     2     1
 0.0317657197     1     4     2     3
 -0.0143807425     1     4     2     5
 0.0444028785     1     4     3     2
 0.0221322986     1     4     3     6
 -0.1952302646     1     4     4     1
 0.0104512845     1     4     4     3
 -0.0018004411     1     4     4     5
 0.0384078315     1     4     5     2
 -0.0110657893     1     4     5     6
 0.0397371076     1     4     6     1
 -0.0173860919     1     4     6     3
 -0.0097653654     1     4     6     5
 0.0007195415     1     5     2     2
 0.0143807425     1     5     2     4
 -0.0121723799     1     5     2     6
 0.0311180114     1     5     3     1
 -0.0310126844     1     5     3     3
 0.0523159406     1     5     4     2
 0.0018004411     1     5     4     4
 -0.0011910319     1     5     4     6
 -0.1899357072     1     5     5     1
 0.0006274821     1     5     5     3
 0.0465716999     1     5     6     2
 0.0097653654     1     5     6     4
 -0.0057560737     1     5     6     6
 -0.0089805748     1     6     2     1
 -0.0054381339     1     6     2     3
 0.0121723799     1     6     2     5
 -0.0212850494     1     6     3     2
 -0.0221322986     1     6     3     4
 0.0397371076     1     6     4     1
 -0.0371551905     1     6     4     3
 0.0011910319     1     6     4     5
 0.0569073748     1     6     5     2
 0.0110657893     1     6     5     4
 -0.2169714897     1     6     6     1
 0.0223668126     1     6     6     3
 0.0057560737     1     6     6     5
 -0.1364113678     2     1     1     2
 -0.0149014055     2     1     1     4
 -0.0089805748     2     1     1     6
 0.0490163787     2     1     3     2
 -0.0127526280     2     1     3     4
 0.0159499830     2     1     3     6
 -0.0444028785     2     1     4     3
 -0.0384078315     2     1     4     5
 -0.0007195415     2     1     5     2
 -0.0523159406     2     1     5     4
 -0.0465716999     2     1     5     6
 0.0212850494     2     1     6     3
 -0.0569073748     2     1     6     5
 0.1364113678     2     2     1     1
 -0.0490163787     2     2     1     3
 0.0007195415     2     2     1     5
 -0.0490163787     2     2     3     1
 0.1418879839     2     2     3     3
 -0.0071766054     2     2     3     5
 0.1772485061     2     2     4     4
 -0.0068771879     2     2     4     6
 0.0007195415     2     2     5     1
 -0.0071766054     2     2     5     3
 0.1854519663     2     2     5     5
 -0.0068771879     2     2     6     4
 0.1878253394     2     2     6     6
 0.0490163787     2     3     1     2
 0.0317657197     2     3     1     4
 -0.0054381339     2     3     1     6
 -0.1418879839     2     3     3     2
 -0.0552870448     2     3     3     4
 0.0042423859     2     3     3     6
 0.0444028785     2     3     4     1
 -0.0578448411     2     3     4     5
 0.0071766054     2     3     5     2
 -0.0329608021     2     3     5     4
 -0.0511734359     2     3     5     6
 -0.0212850494     2     3     6     1
 -0.0341723243     2     3     6     5
 0.0149014055     2     4     1     1
 -0.0317657197     2     4     1     3
 0.0143807425     2     4     1     5
 0.0127526280     2     4     3     1
 0.0552870448     2     4     3     3
 -0.0274754246     2     4     3     5
 -0.1772485061     2     4     4     2
 -0.0356895601     2     4     4     6
 0.0523159406     2     4     5     1
 0.0329608021     2     4     5     3
 0.0039260261     2     4     5     5
 0.0068771879     2     4     6     2
 0.0197094739     2     4     6     6
 -0.0007195415     2     5     1     2
 -0.0143807425     2     5     1     4
 0.0121723799     2     5     1     6
 0.0071766054     2     5     3     2
 0.0274754246     2     5     3     4
 -0.0175699109     2     5     3     6
 0.0384078315     2     5     4     1
 0.0578448411     2     5     4     3
 -0.1854519663     2     5     5     2
 -0.0039260261     2     5     5     4
 -0.0069198934     2     5     5     6
 0.0569073748     2     5     6     1
 0.0341723243     2     5     6     3
 0.0089805748     2     6     1     1
 0.0054381339     2     6     1     3
 -0.0121723799     2     6     1     5
 -0.0159499830     2     6     3     1
 -0.0042423859     2     6     3     3
 0.0175699109     2     6     3     5
 0.0068771879     2     6     4     2
 0.0356895601     2     6     4     4
 0.0465716999     2     6     5     1
 0.0511734359     2     6     5     3
 0.0069198934     2     6     5     5
 -0.1878253394     2     6     6     2
 -0.0197094739     2     6     6     4
 -0.1746779299     3     1     1     3
 0.0311180114     3     1     1     5
 -0.0490163787     3     1     2     2
 0.0127526280     3     1     2     4
 -0.0159499830     3     1     2     6
 -0.0317657197     3     1     4     2
 -0.0104512845     3     1     4     4
 0.0173860919     3     1     4     6
 0.0310126844     3     1     5     3
 -0.0006274821     3     1     5     5
 0.0054381339     3     1     6     2
 0.0371551905     3     1     6     4
 -0.0223668126     3     1     6     6
 0.0444028785     3     2     1     4
 -0.0212850494     3     2     1     6
 0.0490163787     3     2     2     1
 -0.1418879839     3     2     2     3
 0.0071766054     3     2     2     5
 0.0317657197     3     2     4     1
 -0.0552870448     3     2     4     3
 -0.0329608021     3     2     4     5
 -0.0578448411     3     2     5     4
 -0.0341723243     3     2     5     6
 -0.0054381339     3     2     6     1
 0.0042423859     3     2     6     3
 -0.0511734359     3     2     6     5
 0.1746779299     3     3     1     1
 -0.0310126844     3     3     1     5
 0.1418879839     3     3     2     2
 0.0552870448     3     3     2     4
 -0.0042423859     3     3     2     6
 0.0552870448     3     3     4     2
 0.1814865848     3     3     4     4
 -0.0159863327     3     3     4     6
 -0.0310126844     3     3     5     1
 0.1754710500     3     3     5     5
 -0.0042423859     3     3     6     2
 -0.0159863327     3     3     6     4
 0.1878141887     3     3     6     6
 -0.0444028785     3     4     1     2
 -0.0221322986     3     4     1     6
 -0.0127526280     3     4     2     1
 -0.0552870448     3     4     2     3
 0.0274754246     3     4     2     5
 0.0104512845     3     4     4     1
 -0.1814865848     3     4     4     3
 0.0600833877     3     4     4     5
 0.0578448411     3     4     5     2
 0.0500582191     3     4     5     6
 -0.0371551905     3     4     6     1
 0.0159863327     3     4     6     3
 0.0085681911     3     4     6     5
 -0.0311180114     3     5     1     1
 0.0310126844     3     5     1     3
 -0.0071766054     3     5     2     2
 -0.0274754246     3     5     2     4
 0.0175699109     3     5     2     6
 0.0329608021     3     5     4     2
 -0.0600833877     3     5     4     4
 0.0415198127     3     5     4     6
 0.0006274821     3     5     5     1
 -0.1754710500     3     5     5     3
 0.0511734359     3     5     6     2
 -0.0085681911     3     5     6     4
 -0.0103873436     3     5     6     6
 0.0212850494     3     6     1     2
 0.0221322986     3     6     1     4
 0.0159499830     3     6     2     1
 0.0042423859     3     6     2     3
 -0.0175699109     3     6     2     5
 -0.0173860919     3     6     4     1
 0.0159863327     3     6     4     3
 -0.0415198127     3     6     4     5
 0.0341723243     3     6     5     2
 -0.0500582191     3     6     5     4
 0.0223668126     3     6     6     1
 -0.1878141887     3     6     6     3
 0.0103873436     3     6     6     5
 -0.0149014055     4     1     1     2
 -0.1952302646     4     1     1     4
 0.0397371076     4     1     1     6
 0.0444028785     4     1     2     3
 0.0384078315     4     1     2     5
 0.0317657197     4     1     3     2
 0.0104512845     4     1     3     4
 -0.0173860919     4     1     3     6
 -0.0143807425     4     1     5     2
 -0.0018004411     4     1     5     4
 -0.0097653654     4     1     5     6
 0.0221322986     4     1     6     3
 -0.0110657893     4     1     6     5
 0.0149014055     4     2     1     1
 0.0127526280     4     2     1     3
 0.0523159406     4     2     1     5
 -0.1772485061     4     2     2     4
 0.0068771879     4     2     2     6
 -0.0317657197     4     2     3     1
 0.0552870448     4     2     3     3
 0.0329608021     4     2     3     5
 0.0143807425     4     2     5     1
 -0.0274754246     4     2     5     3
 0.0039260261     4     2     5     5
 -0.0356895601     4     2     6     4
 0.0197094739     4     2     6     6
 -0.0127526280     4     3     1     2
 0.0104512845     4     3     1     4
 -0.0371551905     4     3     1     6
 -0.0444028785     4     3     2     1
 0.0578448411     4     3     2     5
 -0.0552870448     4     3     3     2
 -0.1814865848     4     3     3     4
 0.0159863327     4     3     3     6
 0.0274754246     4     3     5     2
 0.0600833877     4     3     5     4
 0.0085681911     4     3     5     6
 -0.0221322986     4     3     6     1
 0.0500582191     4     3     6     5
 0.1952302646     4     4     1     1
 -0.0104512845     4     4     1     3
 0.0018004411     4     4     1     5
 0.1772485061     4     4     2     2
 0.0356895601     4     4     2     6
 -0.0104512845     4     4     3     1
 0.1814865848     4     4     3     3
 -0.0600833877     4     4     3     5
 0.0018004411     4     4     5     1
 -0.0600833877     4     4     5     3
 0.1420798153     4     4     5     5
 0.0356895601     4     4     6     2
 0.1708739171     4     4     6     6
 -0.0523159406     4     5     1     2
 -0.0018004411     4     5     1     4
 0.0011910319     4     5     1     6
 -0.0384078315     4     5     2     1
 -0.0578448411     4     5     2     3
 -0.0329608021     4     5     3     2
 0.0600833877     4     5     3     4
 -0.0415198127     4     5     3     6
 -0.0039260261     4     5     5     2
 -0.1420798153     4     5     5     4
 0.0585279181     4     5     5     6
 0.0110657893     4     5     6     1
 -0.0500582191     4     5     6     3
 -0.0397371076     4     6     1     1
 0.0371551905     4     6     1     3
 -0.0011910319     4     6     1     5
 -0.0068771879     4     6     2     2
 -0.0356895601     4     6     2     4
 0.0173860919     4     6     3     1
 -0.0159863327     4     6     3     3
 0.0415198127     4     6     3     5
 0.0097653654     4     6     5     1
 -0.0085681911     4     6     5     3
 -0.0585279181     4     6     5     5
 -0.0197094739     4     6     6     2
 -0.1708739171     4     6     6     4
 0.0311180114     5     1     1     3
 -0.1899357072     5     1     1     5
 0.0007195415     5     1     2     2
 0.0523159406     5     1     2     4
 0.0465716999     5     1     2     6
 -0.0310126844     5     1     3     3
 0.0006274821     5     1     3     5
 0.0143807425     5     1     4     2
 0.0018004411     5     1     4     4
 0.0097653654     5     1     4     6
 -0.0121723799     5     1     6     2
 -0.0011910319     5     1     6     4
 -0.0057560737     5     1     6     6
 0.0384078315     5     2     1     4
 0.0569073748     5     2     1     6
 -0.0007195415     5     2     2     1
 0.0071766054     5     2     2     3
 -0.1854519663     5     2     2     5
 0.0578448411     5     2     3     4
 0.0341723243     5     2     3     6
 -0.0143807425     5     2     4     1
 0.0274754246     5     2     4     3
 -0.0039260261     5     2     4     5
 0.0121723799     5     2     6     1
 -0.0175699109     5     2     6     3
 -0.0069198934     5     2     6     5
 -0.0311180114     5     3     1     1
 0.0006274821     5     3     1     5
 -0.0071766054     5     3     2     2
 0.0329608021     5     3     2     4
 0.0511734359     5     3     2     6
 0.0310126844     5     3     3     1
 -0.1754710500     5     3     3     5
 -0.0274754246     5     3     4     2
 -0.0600833877     5     3     4     4
 -0.0085681911     5     3     4     6
 0.0175699109     5     3     6     2
 0.0415198127     5     3     6     4
 -0.0103873436     5     3     6     6
 -0.0384078315     5     4     1     2
 0.0110657893     5     4     1     6
 -0.0523159406     5     4     2     1
 -0.0329608021     5     4     2     3
 -0.0039260261     5     4     2     5
 -0.0578448411     5     4     3     2
 -0.0500582191     5     4     3     6
 -0.0018004411     5     4     4     1
 0.0600833877     5     4     4     3
 -0.1420798153     5     4     4     5
 0.0011910319     5     4     6     1
 -0.0415198127     5     4     6     3
 0.0585279181     5     4     6     5
 0.1899357072     5     5     1     1
 -0.0006274821     5     5     1     3
 0.1854519663     5     5     2     2
 0.0039260261     5     5     2     4
 0.0069198934     5     5     2     6
 -0.0006274821     5     5     3     1
 0.1754710500     5     5     3     3
 0.0039260261     5     5     4     2
 0.1420798153     5     5     4     4
 -0.0585279181     5     5     4     6
 0.0069198934     5     5     6     2
 -0.0585279181     5     5     6     4
 0.1439982767     5     5     6     6
 -0.0569073748     5     6     1     2
 -0.0110657893     5     6     1     4
 -0.0465716999     5     6     2     1
 -0.0511734359     5     6     2     3
 -0.0069198934     5     6     2     5
 -0.0341723243     5     6     3     2
 0.0500582191     5     6     3     4
 -0.0097653654     5     6     4     1
 0.0085681911     5     6     4     3
 0.0585279181     5     6     4     5
 0.0057560737     5     6     6     1
 0.0103873436     5     6     6     3
 -0.1439982767     5     6     6     5
 -0.0089805748     6     1     1     2
 0.0397371076     6     1     1     4
 -0.2169714897     6     1     1     6
 -0.0212850494     6     1     2     3
 0.0569073748     6     1     2     5
 -0.0054381339     6     1     3     2
 -0.0371551905     6     1     3     4
 0.0223668126     6     1     3     6
 -0.0221322986     6     1     4     3
 0.0110657893     6     1     4     5
 0.0121723799     6     1     5     2
 0.0011910319     6     1     5     4
 0.0057560737     6     1     5     6
 0.0089805748     6     2     1     1
 -0.0159499830     6     2     1     3
 0.0465716999     6     2     1     5
 0.0068771879     6     2     2     4
 -0.1878253394     6     2     2     6
 0.0054381339     6     2     3     1
 -0.0042423859     6     2     3     3
 0.0511734359     6     2     3     5
 0.0356895601     6     2     4     4
 -0.0197094739     6     2     4     6
 -0.0121723799     6     2     5     1
 0.0175699109     6     2     5     3
 0.0069198934     6     2     5     5
 0.0159499830     6     3     1     2
 -0.0173860919     6     3     1     4
 0.0223668126     6     3     1     6
 0.0212850494     6     3     2     1
 0.0341723243     6     3     2     5
 0.0042423859     6     3     3     2
 0.0159863327     6     3     3     4
 -0.1878141887     6     3     3     6
 0.0221322986     6     3     4     1
 -0.0500582191     6     3     4     5
 -0.0175699109     6     3     5     2
 -0.0415198127     6     3     5     4
 0.0103873436     6     3     5     6
 -0.0397371076     6     4     1     1
 0.0173860919     6     4     1     3
 0.0097653654     6     4     1     5
 -0.0068771879     6     4     2     2
 -0.0197094739     6     4     2     6
 0.0371551905     6     4     3     1
 -0.0159863327     6     4     3     3
 -0.0085681911     6     4     3     5
 -0.0356895601     6     4     4     2
 -0.1708739171     6     4     4     6
 -0.0011910319     6     4     5     1
 0.0415198127     6     4     5     3
 -0.0585279181     6     4     5     5
 -0.0465716999     6     5     1     2
 -0.0097653654     6     5     1     4
 0.0057560737     6     5     1     6
 -0.0569073748     6     5     2     1
 -0.0341723243     6     5     2     3
 -0.0511734359     6     5     3     2
 0.0085681911     6     5     3     4
 0.0103873436     6     5     3     6
 -0.0110657893     6     5     4     1
 0.0500582191     6     5     4     3
 -0.0069198934     6     5     5     2
 0.0585279181     6     5     5     4
 -0.1439982767     6     5     5     6
 0.2169714897     6     6     1     1
 -0.0223668126     6     6     1     3
 -0.0057560737     6     6     1     5
 0.1878253394     6     6     2     2
 0.0197094739     6     6     2     4
 -0.0223668126     6     6     3     1
 0.1878141887     6     6     3     3
 -0.0103873436     6     6     3     5
 0.0197094739     6     6     4     2
 0.1708739171     6     6     4     4
 -0.0057560737     6     6     5     1
 -0.0103873436     6     6     5     3
 0.1439982767     6     6     5     5
0.0 0 0 0 0
 0.1364113678     1     1     2     2
 0.0149014055     1     1     2     4
 0.0089805748     1     1     2     6
 0.1746779299     1     1     3     3
 -0.0311180114     1     1     3     5
 0.0149014055     1     1     4     2
 0.1952302646     1     1     4     4
 -0.0397371076     1     1     4     6
 -0.0311180114     1     1     5     3
 0.1899357072     1     1     5     5
 0.0089805748     1     1     6     2
 -0.0397371076     1     1     6     4
 0.2169714897     1     1     6     6
 -0.1364113678     1     2     2     1
 0.0490163787     1     2     2     3
 -0.0007195415     1     2     2     5
 -0.0444028785     1     2     3     4
 0.0212850494     1     2     3     6
 -0.0149014055     1     2     4     1
 -0.0127526280     1     2     4     3
 -0.0523159406     1     2     4     5
 -0.0384078315     1     2     5     4
 -0.0569073748     1     2     5     6
 -0.0089805748     1     2     6     1
 0.0159499830     1     2     6     3
 -0.0465716999     1     2     6     5
 -0.0490163787     1     3     2     2
 -0.0317657197     1     3     2     4
 0.0054381339     1     3     2     6
 -0.1746779299     1     3     3     1
 0.0310126844     1     3     3     5
 0.0127526280     1     3     4     2
 -0.0104512845     1     3     4     4
 0.0371551905     1     3     4     6
 0.0311180114     1     3     5     1
 -0.0006274821     1     3     5     5
 -0.0159499830     1     3     6     2
 0.0173860919     1     3     6     4
 -0.0223668126     1     3     6     6
 -0.0149014055     1     4     2     1
 0.0317657197     1     4     2     3
 -0.0143807425     1     4     2     5
 0.0444028785     1     4     3     2
 0.0221322986     1     4     3     6
 -0.1952302646     1     4     4     1
 0.0104512845     1     4     4     3
 -0.0018004411     1     4     4     5
 0.0384078315     1     4     5     2
 -0.0110657893     1     4     5     6
 0.0397371076     1     4     6     1
 -0.0173860919     1     4     6     3
 -0.0097653654     1     4     6     5
 0.0007195415     1     5     2     2
 0.0143807425     1     5     2     4
 -0.0121723799     1     5     2     6
 0.0311180114     1     5     3     1
 -0.0310126844     1     5     3     3
 0.0523159406     1     5     4     2
 0.0018004411     1     5     4     4
 -0.0011910319     1     5     4     6
 -0.1899357072     1     5     5     1
 0.0006274821     1     5     5     3
 0.0465716999     1     5     6     2
 0.0097653654     1     5     6     4
 -0.0057560737     1     5     6     6
 -0.0089805748     1     6     2     1
 -0.0054381339     1     6     2     3
 0.0121723799     1     6     2     5
 -0.0212850494     1     6     3     2
 -0.0221322986     1     6     3     4
 0.0397371076     1     6     4     1
 -0.0371551905     1     6     4     3
 0.0011910319     1     6     4     5
 0.0569073748     1     6     5     2
 0.0110657893     1     6     5     4
 -0.2169714897     1     6     6     1
 0.0223668126     1     6     6     3
 0.0057560737     1     6     6     5
 -0.1364113678     2     1     1     2
 -0.0149014055     2     1     1     4
 -0.0089805748     2     1     1     6
 0.0490163787     2     1     3     2
 -0.0127526280     2     1     3     4
 0.0159499830     2     1     3     6
 -0.0444028785     2     1     4     3
 -0.0384078315     2     1     4     5
 -0.0007195415     2     1     5     2
 -0.0523159406     2     1     5     4
 -0.0465716999     2     1     5     6
 0.0212850494     2     1     6     3
 -0.0569073748     2     1     6     5
 0.1364113678     2     2     1     1
 -0.0490163787     2     2     1     3
 0.0007195415     2     2     1     5
 -0.0490163787     2     2     3     1
 0.1418879839     2     2     3     3
 -0.0071766054     2     2     3     5
 0.1772485061     2     2     4     4
 -0.0068771879     2     2     4     6
 0.0007195415     2     2     5     1
 -0.0071766054     2     2     5     3
 0.1854519663     2     2     5     5
 -0.0068771879     2     2     6     4
 0.1878253394     2     2     6     6
 0.0490163787     2     3     1     2
 0.0317657197     2     3     1     4
 -0.0054381339     2     3     1     6
 -0.1418879839     2     3     3     2
 -0.0552870448     2     3     3     4
 0.0042423859     2     3     3     6
 0.0444028785     2     3     4     1
 -0.0578448411     2     3     4     5
 0.0071766054     2     3     5     2
 -0.0329608021     2     3     5     4
 -0.0511734359     2     3     5     6
 -0.0212850494     2     3     6     1
 -0.0341723243     2     3     6     5
 0.0149014055     2     4     1     1
 -0.0317657197     2     4     1     3
 0.0143807425     2     4     1     5
 0.0127526280     2     4     3     1
 0.0552870448     2     4     3     3
 -0.0274754246     2     4     3     5
 -0.1772485061     2     4     4     2
 -0.0356895601     2     4     4     6
 0.0523159406     2     4     5     1
 0.0329608021     2     4     5     3
 0.0039260261     2     4     5     5
 0.0068771879     2     4     6     2
 0.0197094739     2     4     6     6
 -0.0007195415     2     5     1     2
 -0.0143807425     2     5     1     4
 0.0121723799     2     5     1     6
 0.0071766054     2     5     3     2
 0.0274754246     2     5     3     4
 -0.0175699109     2     5     3     6
 0.0384078315     2     5     4     1
 0.0578448411     2     5     4     3
 -0.1854519663     2     5     5     2
 -0.0039260261     2     5     5     4
 -0.0069198934     2     5     5     6
 0.0569073748     2     5     6     1
 0.0341723243     2     5     6     3
 0.0089805748     2     6     1     1
 0.0054381339     2     6     1     3
 -0.0121723799     2     6     1     5
 -0.0159499830     2     6     3     1
 -0.0042423859     2     6     3     3
 0.0175699109     2     6     3     5
 0.0068771879     2     6     4     2
 0.0356895601     2     6     4     4
 0.0465716999     2     6     5     1
 0.0511734359     2     6     5     3
 0.0069198934     2     6     5     5
 -0.1878253394     2     6     6     2
 -0.0197094739     2     6     6     4
 -0.1746779299     3     1     1     3
 0.0311180114     3     1     1     5
 -0.0490163787     3     1     2     2
 0.0127526280     3     1     2     4
 -0.0159499830     3     1     2     6
 -0.0317657197     3     1     4     2
 -0.0104512845     3     1     4     4
 0.0173860919     3     1     4     6
 0.0310126844     3     1     5     3
 -0.0006274821     3     1     5     5
 0.0054381339     3     1     6     2
 0.0371551905     3     1     6     4
 -0.0223668126     3     1     6     6
 0.0444028785     3     2     1     4
 -0.0212850494     3     2     1     6
 0.0490163787     3     2     2     1
 -0.1418879839     3     2     2     3
 0.0071766054     3     2     2     5
 0.0317657197     3     2     4     1
 -0.0552870448     3     2     4     3
 -0.0329608021     3     2     4     5
 -0.0578448411     3     2     5     4
 -0.0341723243     3     2     5     6
 -0.0054381339     3     2     6     1
 0.0042423859     3     2     6     3
 -0.0511734359     3     2     6     5
 0.1746779299     3     3     1     1
 -0.0310126844     3     3     1     5
 0.1418879839     3     3     2     2
 0.0552870448     3     3     2     4
 -0.0042423859     3     3     2     6
 0.0552870448     3     3     4     2
 0.1814865848     3     3     4     4
 -0.0159863327     3     3     4     6
 -0.0310126844     3     3     5     1
 0.1754710500     3     3     5     5
 -0.0042423859     3     3     6     2
 -0.0159863327     3     3     6     4
 0.1878141887     3     3     6     6
 -0.0444028785     3     4     1     2
 -0.0221322986     3     4     1     6
 -0.0127526280     3     4     2     1
 -0.0552870448     3     4     2     3
 0.0274754246     3     4     2     5
 0.0104512845     3     4     4     1
 -0.1814865848     3     4     4     3
 0.0600833877     3     4     4     5
 0.0578448411     3     4     5     2
 0.0500582191     3     4     5     6
 -0.0371551905     3     4     6     1
 0.0159863327     3     4     6     3
 0.0085681911     3     4     6     5
 -0.0311180114     3     5     1     1
 0.0310126844     3     5     1     3
 -0.0071766054     3     5     2     2
 -0.0274754246     3     5     2     4
 0.0175699109     3     5     2     6
 0.0329608021     3     5     4     2
 -0.0600833877     3     5     4     4
 0.0415198127     3     5     4     6
 0.0006274821     3     5     5     1
 -0.1754710500     3     5     5     3
 0.0511734359     3     5     6     2
 -0.0085681911     3     5     6     4
 -0.0103873436     3     5     6     6
 0.0212850494     3     6     1     2
 0.0221322986     3     6     1     4
 0.0159499830     3     6     2     1
 0.0042423859     3     6     2     3
 -0.0175699109     3     6     2     5
 -0.0173860919     3     6     4     1
 0.0159863327     3     6     4     3
 -0.0415198127     3     6     4     5
 0.0341723243     3     6     5     2
 -0.0500582191     3     6     5     4
 0.0223668126     3     6     6     1
 -0.1878141887     3     6     6     3
 0.0103873436     3     6     6     5
 -0.0149014055     4     1     1     2
 -0.1952302646     4     1     1     4
 0.0397371076     4     1     1     6
 0.0444028785     4     1     2     3
 0.0384078315     4     1     2     5
 0.0317657197     4     1     3     2
 0.0104512845     4     1     3     4
 -0.0173860919     4     1     3     6
 -0.0143807425     4     1     5     2
 -0.0018004411     4     1     5     4
 -0.0097653654     4     1     5     6
 0.0221322986     4     1     6     3
 -0.0110657893     4     1     6     5
 0.0149014055     4     2     1     1
 0.0127526280     4     2     1     3
 0.0523159406     4     2     1     5
 -0.1772485061     4     2     2     4
 0.0068771879     4     2     2     6
 -0.0317657197     4     2     3     1
 0.0552870448     4     2     3     3
 0.0329608021     4     2     3     5
 0.0143807425     4     2     5     1
 -0.0274754246     4     2     5     3
 0.0039260261     4     2     5     5
 -0.0356895601     4     2     6     4
 0.0197094739     4     2     6     6
 -0.0127526280     4     3     1     2
 0.0104512845     4     3     1     4
 -0.0371551905     4     3     1     6
 -0.0444028785     4     3     2     1
 0.0578448411     4     3     2     5
 -0.0552870448     4     3     3     2
 -0.1814865848     4     3     3     4
 0.0159863327     4     3     3     6
 0.0274754246     4     3     5     2
 0.0600833877     4     3     5     4
 0.0085681911     4     3     5     6
 -0.0221322986     4     3     6     1
 0.0500582191     4     3     6     5
 0.1952302646     4     4     1     1
 -0.0104512845     4     4     1     3
 0.0018004411     4     4     1     5
 0.1772485061     4     4     2     2
 0.0356895601     4     4     2     6
 -0.0104512845     4     4     3     1
 0.1814865848     4     4     3     3
 -0.0600833877     4     4     3     5
 0.0018004411     4     4     5     1
 -0.0600833877     4     4     5     3
 0.1420798153     4     4     5     5
 0.0356895601     4     4     6     2
 0.1708739171     4     4     6     6
 -0.0523159406     4     5     1     2
 -0.0018004411     4     5     1     4
 0.0011910319     4     5     1     6
 -0.0384078315     4     5     2     1
 -0.0578448411     4     5     2     3
 -0.0329608021     4     5     3     2
 0.0600833877     4     5     3     4
 -0.0415198127     4     5     3     6
 -0.0039260261     4     5     5     2
 -0.1420798153     4     5     5     4
 0.0585279181     4     5     5     6
 0.0110657893     4     5     6     1
 -0.0500582191     4     5     6     3
 -0.0397371076     4     6     1     1
 0.0371551905     4     6     1     3
 -0.0011910319     4     6     1     5
 -0.0068771879     4     6     2     2
 -0.0356895601     4     6     2     4
 0.0173860919     4     6     3     1
 -0.0159863327     4     6     3     3
 0.0415198127     4     6     3     5
 0.0097653654     4     6     5     1
 -0.0085681911     4     6     5     3