&FCI NORB=  8,NELEC= 10,MS2=0,
 ORBSYM=1,1,1,1,1,1,1,1
 ISYM=1,
&END
 0.9848467365     1     1     2     2
 -0.0669380916     1     1     2     4
 -0.1113340899     1     1     2     6
 0.8717339958     1     1     3     3
 -0.1257354770     1     1     3     7
 -0.0646520413     1     1     3     8
 -0.0669380916     1     1     4     2
 0.9494693954     1     1     4     4
 -0.0552236735     1     1     4     6
 0.9938568938     1     1     5     5
 -0.1113340899     1     1     6     2
 -0.0552236735     1     1     6     4
 0.3152240617     1     1     6     6
 -0.1257354770     1     1     7     3
 0.2836091715     1     1     7     7
 0.0650435283     1     1     7     8
 -0.0646520413     1     1     8     3
 0.0650435283     1     1     8     7
 0.3887835761     1     1     8     8
 -0.9848467365     1     2     2     1
 0.0069825950     1     2     2     4
 -0.0008244278     1     2     2     6
 0.0309421522     1     2     3     3
 -0.0101259075     1     2     3     7
 -0.0083354805     1     2     3     8
 0.0669380916     1     2     4     1
 0.0356717571     1     2     4     4
 -0.0059185058     1     2     4     6
 0.0403920757     1     2     5     5
 0.1113340899     1     2     6     1
 -0.0055142527     1     2     6     4
 0.0014634185     1     2     6     6
 -0.0072218671     1     2     7     3
 0.0034381375     1     2     7     7
 0.0027020243     1     2     7     8
 -0.0053858047     1     2     8     3
 0.0023766661     1     2     8     7
 0.0019871754     1     2     8     8
 -0.0021302152     1     3     2     7
 -0.0024305181     1     3     2     8
 -0.8717339958     1     3     3     1
 -0.0309421522     1     3     3     2
 0.0105885344     1     3     3     4
 0.0041491848     1     3     3     6
 -0.0010076349     1     3     4     7
 -0.0040594436     1     3     4     8
 -0.0018609770     1     3     6     7
 0.0004327237     1     3     6     8
 0.1257354770     1     3     7     1
 0.0072218671     1     3     7     2
 -0.0026070697     1     3     7     4
 -0.0035195998     1     3     7     6
 0.0646520413     1     3     8     1
 0.0053858047     1     3     8     2
 -0.0017864218     1     3     8     4
 -0.0016751995     1     3     8     6
 0.0669380916     1     4     2     1
 -0.0069825950     1     4     2     2
 0.0001442124     1     4     2     6
 -0.0105885344     1     4     3     3
 0.0017543692     1     4     3     7
 -0.0022409980     1     4     3     8
 -0.9494693954     1     4     4     1
 -0.0356717571     1     4     4     2
 0.0080547342     1     4     4     6
 -0.0136240761     1     4     5     5
 0.0552236735     1     4     6     1
 0.0055142527     1     4     6     2
 -0.0032330578     1     4     6     6
 0.0026070697     1     4     7     3
 -0.0020984530     1     4     7     7
 -0.0009384878     1     4     7     8
 0.0017864218     1     4     8     3
 -0.0021672040     1     4     8     7
 -0.0012680130     1     4     8     8
 -0.9938568938     1     5     5     1
 -0.0403920757     1     5     5     2
 0.0136240761     1     5     5     4
 0.0077479605     1     5     5     6
 0.1113340899     1     6     2     1
 0.0008244278     1     6     2     2
 -0.0001442124     1     6     2     4
 -0.0041491848     1     6     3     3
 0.0015870500     1     6     3     7
 0.0020898323     1     6     3     8
 0.0552236735     1     6     4     1
 0.0059185058     1     6     4     2
 -0.0080547342     1     6     4     4
 -0.0077479605     1     6     5     5
 -0.3152240617     1     6     6     1
 -0.0014634185     1     6     6     2
 0.0032330578     1     6     6     4
 0.0035195998     1     6     7     3
 -0.0011617453     1     6     7     7
 -0.0009987633     1     6     7     8
 0.0016751995     1     6     8     3
 -0.0003696706     1     6     8     7
 -0.0003162124     1     6     8     8
 0.0021302152     1     7     2     3
 0.0003027337     1     7     2     8
 0.1257354770     1     7     3     1
 0.0101259075     1     7     3     2
 -0.0017543692     1     7     3     4
 -0.0015870500     1     7     3     6
 0.0010076349     1     7     4     3
 0.0011897180     1     7     4     8
 0.0018609770     1     7     6     3
 -0.0006294847     1     7     6     8
 -0.2836091715     1     7     7     1
 -0.0034381375     1     7     7     2
 0.0020984530     1     7     7     4
 0.0011617453     1     7     7     6
 -0.0650435283     1     7     8     1
 -0.0023766661     1     7     8     2
 0.0021672040     1     7     8     4
 0.0003696706     1     7     8     6
 0.0024305181     1     8     2     3
 -0.0003027337     1     8     2     7
 0.0646520413     1     8     3     1
 0.0083354805     1     8     3     2
 0.0022409980     1     8     3     4
 -0.0020898323     1     8     3     6
 0.0040594436     1     8     4     3
 -0.0011897180     1     8     4     7
 -0.0004327237     1     8     6     3
 0.0006294847     1     8     6     7
 -0.0650435283     1     8     7     1
 -0.0027020243     1     8     7     2
 0.0009384878     1     8     7     4
 0.0009987633     1     8     7     6
 -0.3887835761     1     8     8     1
 -0.0019871754     1     8     8     2
 0.0012680130     1     8     8     4
 0.0003162124     1     8     8     6
 -0.9848467365     2     1     1     2
 0.0669380916     2     1     1     4
 0.1113340899     2     1     1     6
 0.0309421522     2     1     3     3
 -0.0072218671     2     1     3     7
 -0.0053858047     2     1     3     8
 0.0069825950     2     1     4     2
 0.0356717571     2     1     4     4
 -0.0055142527     2     1     4     6
 0.0403920757     2     1     5     5
 -0.0008244278     2     1     6     2
 -0.0059185058     2     1     6     4
 0.0014634185     2     1     6     6
 -0.0101259075     2     1     7     3
 0.0034381375     2     1     7     7
 0.0023766661     2     1     7     8
 -0.0083354805     2     1     8     3
 0.0027020243     2     1     8     7
 0.0019871754     2     1     8     8
 0.9848467365     2     2     1     1
 -0.0069825950     2     2     1     4
 0.0008244278     2     2     1     6
 0.5285707095     2     2     3     3
 -0.0525255742     2     2     3     7
 -0.0102926263     2     2     3     8
 -0.0069825950     2     2     4     1
 0.5501296424     2     2     4     4
 -0.0234159463     2     2     4     6
 0.5762645678     2     2     5     5
 0.0008244278     2     2     6     1
 -0.0234159463     2     2     6     4
 0.2807883350     2     2     6     6
 -0.0525255742     2     2     7     3
 0.2556505622     2     2     7     7
 0.0429123602     2     2     7     8
 -0.0102926263     2     2     8     3
 0.0429123602     2     2     8     7
 0.3578839938     2     2     8     8
 0.0021302152     2     3     1     7
 0.0024305181     2     3     1     8
 -0.0309421522     2     3     3     1
 -0.5285707095     2     3     3     2
 0.0017730207     2     3     3     4
 0.0525838333     2     3     3     6
 0.0078625104     2     3     4     7
 0.0270846898     2     3     4     8
 0.0298004178     2     3     6     7
 -0.0003590381     2     3     6     8
 0.0101259075     2     3     7     1
 0.0525255742     2     3     7     2
 0.0015380760     2     3     7     4
 0.0202365765     2     3     7     6
 0.0083354805     2     3     8     1
 0.0102926263     2     3     8     2
 0.0045183384     2     3     8     4
 -0.0014035383     2     3     8     6
 -0.0669380916     2     4     1     1
 0.0069825950     2     4     1     2
 -0.0001442124     2     4     1     6
 -0.0017730207     2     4     3     3
 0.0063900157     2     4     3     7
 0.0224809908     2     4     3     8
 -0.0356717571     2     4     4     1
 -0.5501296424     2     4     4     2
 0.0522304830     2     4     4     6
 -0.0042604734     2     4     5     5
 0.0059185058     2     4     6     1
 0.0234159463     2     4     6     2
 0.0100876586     2     4     6     6
 -0.0015380760     2     4     7     3
 0.0113170913     2     4     7     7
 0.0055401507     2     4     7     8
 -0.0045183384     2     4     8     3
 0.0095671752     2     4     8     7
 -0.0007134918     2     4     8     8
 -0.0403920757     2     5     5     1
 -0.5762645678     2     5     5     2
 0.0042604734     2     5     5     4
 0.0513997331     2     5     5     6
 -0.1113340899     2     6     1     1
 -0.0008244278     2     6     1     2
 0.0001442124     2     6     1     4
 -0.0525838333     2     6     3     3
 0.0088911299     2     6     3     7
 0.0002390402     2     6     3     8
 0.0055142527     2     6     4     1
 0.0234159463     2     6     4     2
 -0.0522304830     2     6     4     4
 -0.0513997331     2     6     5     5
 -0.0014634185     2     6     6     1
 -0.2807883350     2     6     6     2
 -0.0100876586     2     6     6     4
 -0.0202365765     2     6     7     3
 -0.0052785463     2     6     7     7
 -0.0074448100     2     6     7     8
 0.0014035383     2     6     8     3
 -0.0042270934     2     6     8     7
 -0.0171658685     2     6     8     8
 -0.0021302152     2     7     1     3
 -0.0003027337     2     7     1     8
 0.0072218671     2     7     3     1
 0.0525255742     2     7     3     2
 -0.0063900157     2     7     3     4
 -0.0088911299     2     7     3     6
 -0.0078625104     2     7     4     3
 -0.0035055536     2     7     4     8
 -0.0298004178     2     7     6     3
 -0.0032756648     2     7     6     8
 -0.0034381375     2     7     7     1
 -0.2556505622     2     7     7     2
 -0.0113170913     2     7     7     4
 0.0052785463     2     7     7     6
 -0.0027020243     2     7     8     1
 -0.0429123602     2     7     8     2
 -0.0095671752     2     7     8     4
 0.0042270934     2     7     8     6
 -0.0024305181     2     8     1     3
 0.0003027337     2     8     1     7
 0.0053858047     2     8     3     1
 0.0102926263     2     8     3     2
 -0.0224809908     2     8     3     4
 -0.0002390402     2     8     3     6
 -0.0270846898     2     8     4     3
 0.0035055536     2     8     4     7
 0.0003590381     2     8     6     3
 0.0032756648     2     8     6     7
 -0.0023766661     2     8     7     1
 -0.0429123602     2     8     7     2
 -0.0055401507     2     8     7     4
 0.0074448100     2     8     7     6
 -0.0019871754     2     8     8     1
 -0.3578839938     2     8     8     2
 0.0007134918     2     8     8     4
 0.0171658685     2     8     8     6
 -0.8717339958     3     1     1     3
 0.1257354770     3     1     1     7
 0.0646520413     3     1     1     8
 -0.0309421522     3     1     2     3
 0.0072218671     3     1     2     7
 0.0053858047     3     1     2     8
 0.0105885344     3     1     4     3
 -0.0026070697     3     1     4     7
 -0.0017864218     3     1     4     8
 0.0041491848     3     1     6     3
 -0.0035195998     3     1     6     7
 -0.0016751995     3     1     6     8
 -0.0021302152     3     1     7     2
 -0.0010076349     3     1     7     4
 -0.0018609770     3     1     7     6
 -0.0024305181     3     1     8     2
 -0.0040594436     3     1     8     4
 0.0004327237     3     1     8     6
 -0.0309421522     3     2     1     3
 0.0101259075     3     2     1     7
 0.0083354805     3     2     1     8
 -0.5285707095     3     2     2     3
 0.0525255742     3     2     2     7
 0.0102926263     3     2     2     8
 0.0017730207     3     2     4     3
 0.0015380760     3     2     4     7
 0.0045183384     3     2     4     8
 0.0525838333     3     2     6     3
 0.0202365765     3     2     6     7
 -0.0014035383     3     2     6     8
 0.0021302152     3     2     7     1
 0.0078625104     3     2     7     4
 0.0298004178     3     2     7     6
 0.0024305181     3     2     8     1
 0.0270846898     3     2     8     4
 -0.0003590381     3     2     8     6
 0.8717339958     3     3     1     1
 0.0309421522     3     3     1     2
 -0.0105885344     3     3     1     4
 -0.0041491848     3     3     1     6
 0.0309421522     3     3     2     1
 0.5285707095     3     3     2     2
 -0.0017730207     3     3     2     4
 -0.0525838333     3     3     2     6
 -0.0105885344     3     3     4     1
 -0.0017730207     3     3     4     2
 0.5604293426     3     3     4     4
 -0.0264958872     3     3     4     6
 0.5826710515     3     3     5     5
 -0.0041491848     3     3     6     1
 -0.0525838333     3     3     6     2
 -0.0264958872     3     3     6     4
 0.2838338757     3     3     6     6
 0.2466392060     3     3     7     7
 0.0340941367     3     3     7     8
 0.0340941367     3     3     8     7
 0.3405154402     3     3     8     8
 0.0105885344     3     4     1     3
 -0.0017543692     3     4     1     7
 0.0022409980     3     4     1     8
 0.0017730207     3     4     2     3
 -0.0063900157     3     4     2     7
 -0.0224809908     3     4     2     8
 -0.5604293426     3     4     4     3
 0.0649824276     3     4     4     7
 0.0300627168     3     4     4     8
 0.0264958872     3     4     6     3
 0.0010609794     3     4     6     7
 -0.0007527938     3     4     6     8
 0.0010076349     3     4     7     1
 -0.0078625104     3     4     7     2
 0.0068058460     3     4     7     6
 0.0040594436     3     4     8     1
 -0.0270846898     3     4     8     2
 0.0013562450     3     4     8     6
 -0.5826710515     3     5     5     3
 0.0671077036     3     5     5     7
 0.0229443945     3     5     5     8
 0.0041491848     3     6     1     3
 -0.0015870500     3     6     1     7
 -0.0020898323     3     6     1     8
 0.0525838333     3     6     2     3
 -0.0088911299     3     6     2     7
 -0.0002390402     3     6     2     8
 0.0264958872     3     6     4     3
 -0.0051462768     3     6     4     7
 -0.0013659024     3     6     4     8
 -0.2838338757     3     6     6     3
 0.0201337515     3     6     6     7
 -0.0104945038     3     6     6     8
 0.0018609770     3     6     7     1
 -0.0298004178     3     6     7     2
 -0.0068058460     3     6     7     4
 -0.0004327237     3     6     8     1
 0.0003590381     3     6     8     2
 -0.0013562450     3     6     8     4
 -0.1257354770     3     7     1     1
 -0.0101259075     3     7     1     2
 0.0017543692     3     7     1     4
 0.0015870500     3     7     1     6
 -0.0072218671     3     7     2     1
 -0.0525255742     3     7     2     2
 0.0063900157     3     7     2     4
 0.0088911299     3     7     2     6
 0.0026070697     3     7     4     1
 -0.0015380760     3     7     4     2
 -0.0649824276     3     7     4     4
 0.0051462768     3     7     4     6
 -0.0671077036     3     7     5     5
 0.0035195998     3     7     6     1
 -0.0202365765     3     7     6     2
 -0.0010609794     3     7     6     4
 -0.0201337515     3     7     6     6
 -0.2466392060     3     7     7     3
 -0.0126439926     3     7     7     8
 -0.0340941367     3     7     8     3
 -0.0234448176     3     7     8     8
 -0.0646520413     3     8     1     1
 -0.0083354805     3     8     1     2
 -0.0022409980     3     8     1     4
 0.0020898323     3     8     1     6
 -0.0053858047     3     8     2     1
 -0.0102926263     3     8     2     2
 0.0224809908     3     8     2     4
 0.0002390402     3     8     2     6
 0.0017864218     3     8     4     1
 -0.0045183384     3     8     4     2
 -0.0300627168     3     8     4     4
 0.0013659024     3     8     4     6
 -0.0229443945     3     8     5     5
 0.0016751995     3     8     6     1
 0.0014035383     3     8     6     2
 0.0007527938     3     8     6     4
 0.0104945038     3     8     6     6
 -0.0340941367     3     8     7     3
 0.0126439926     3     8     7     7
 -0.3405154402     3     8     8     3
 0.0234448176     3     8     8     7
 0.0669380916     4     1     1     2
 -0.9494693954     4     1     1     4
 0.0552236735     4     1     1     6
 -0.0069825950     4     1     2     2
 -0.0356717571     4     1     2     4
 0.0055142527     4     1     2     6
 -0.0105885344     4     1     3     3
 0.0026070697     4     1     3     7
 0.0017864218     4     1     3     8
 -0.0136240761     4     1     5     5
 0.0001442124     4     1     6     2
 0.0080547342     4     1     6     4
 -0.0032330578     4     1     6     6
 0.0017543692     4     1     7     3
 -0.0020984530     4     1     7     7
 -0.0021672040     4     1     7     8
 -0.0022409980     4     1     8     3
 -0.0009384878     4     1     8     7
 -0.0012680130     4     1     8     8
 -0.0669380916     4     2     1     1
 -0.0356717571     4     2     1     4
 0.0059185058     4     2     1     6
 0.0069825950     4     2     2     1
 -0.5501296424     4     2     2     4
 0.0234159463     4     2     2     6
 -0.0017730207     4     2     3     3
 -0.0015380760     4     2     3     7
 -0.0045183384     4     2     3     8
 -0.0042604734     4     2     5     5
 -0.0001442124     4     2     6     1
 0.0522304830     4     2     6     4
 0.0100876586     4     2     6     6
 0.0063900157     4     2     7     3
 0.0113170913     4     2     7     7
 0.0095671752     4     2     7     8
 0.0224809908     4     2     8     3
 0.0055401507     4     2     8     7
 -0.0007134918     4     2     8     8
 0.0010076349     4     3     1     7
 0.0040594436     4     3     1     8
 -0.0078625104     4     3     2     7
 -0.0270846898     4     3     2     8
 0.0105885344     4     3     3     1
 0.0017730207     4     3     3     2
 -0.5604293426     4     3     3     4
 0.0264958872     4     3     3     6
 0.0068058460     4     3     6     7
 0.0013562450     4     3     6     8
 -0.0017543692     4     3     7     1
 -0.0063900157     4     3     7     2
 0.0649824276     4     3     7     4
 0.0010609794     4     3     7     6
 0.0022409980     4     3     8     1
 -0.0224809908     4     3     8     2
 0.0300627168     4     3     8     4
 -0.0007527938     4     3     8     6
 0.9494693954     4     4     1     1
 0.0356717571     4     4     1     2
 -0.0080547342     4     4     1     6
 0.0356717571     4     4     2     1
 0.5501296424     4     4     2     2
 -0.0522304830     4     4     2     6
 0.5604293426     4     4     3     3
 -0.0649824276     4     4     3     7
 -0.0300627168     4     4     3     8
 0.6010509097     4     4     5     5
 -0.0080547342     4     4     6     1
 -0.0522304830     4     4     6     2
 0.2715733816     4     4     6     6
 -0.0649824276     4     4     7     3
 0.2469470129     4     4     7     7
 0.0361882934     4     4     7     8
 -0.0300627168     4     4     8     3
 0.0361882934     4     4     8     7
 0.3394719783     4     4     8     8
 0.0136240761     4     5     5     1
 0.0042604734     4     5     5     2
 -0.6010509097     4     5     5     4
 0.0313983864     4     5     5     6
 -0.0552236735     4     6     1     1
 -0.0059185058     4     6     1     2
 0.0080547342     4     6     1     4
 -0.0055142527     4     6     2     1
 -0.0234159463     4     6     2     2
 0.0522304830     4     6     2     4
 -0.0264958872     4     6     3     3
 0.0051462768     4     6     3     7
 0.0013659024     4     6     3     8
 -0.0313983864     4     6     5     5
 0.0032330578     4     6     6     1
 -0.0100876586     4     6     6     2
 -0.2715733816     4     6     6     4
 -0.0010609794     4     6     7     3
 -0.0045462049     4     6     7     7
 -0.0178434938     4     6     7     8
 0.0007527938     4     6     8     3
 0.0010670352     4     6     8     7
 -0.0073783103     4     6     8     8
 -0.0010076349     4     7     1     3
 -0.0011897180     4     7     1     8
 0.0078625104     4     7     2     3
 0.0035055536     4     7     2     8
 -0.0026070697     4     7     3     1
 0.0015380760     4     7     3     2
 0.0649824276     4     7     3     4
 -0.0051462768     4     7     3     6
 -0.0068058460     4     7     6     3
 -0.0189881500     4     7     6     8
 0.0020984530     4     7     7     1
 -0.0113170913     4     7     7     2
 -0.2469470129     4     7     7     4
 0.0045462049     4     7     7     6
 0.0009384878     4     7     8     1
 -0.0055401507     4     7     8     2
 -0.0361882934     4     7     8     4
 -0.0010670352     4     7     8     6
 -0.0040594436     4     8     1     3
 0.0011897180     4     8     1     7
 0.0270846898     4     8     2     3
 -0.0035055536     4     8     2     7
 -0.0017864218     4     8     3     1
 0.0045183384     4     8     3     2
 0.0300627168     4     8     3     4
 -0.0013659024     4     8     3     6
 -0.0013562450     4     8     6     3
 0.0189881500     4     8     6     7
 0.0021672040     4     8     7     1
 -0.0095671752     4     8     7     2
 -0.0361882934     4     8     7     4
 0.0178434938     4     8     7     6
 0.0012680130     4     8     8     1
 0.0007134918     4     8     8     2
 -0.3394719783     4     8     8     4
 0.0073783103     4     8     8     6
 -0.9938568938     5     1     1     5
 -0.0403920757     5     1     2     5
 0.0136240761     5     1     4     5
 0.0077479605     5     1     6     5
 -0.0403920757     5     2     1     5
 -0.5762645678     5     2     2     5
 0.0042604734     5     2     4     5
 0.0513997331     5     2     6     5
 -0.5826710515     5     3     3     5
 0.0671077036     5     3     7     5
 0.0229443945     5     3     8     5
 0.0136240761     5     4     1     5
 0.0042604734     5     4     2     5
 -0.6010509097     5     4     4     5
 0.0313983864     5     4     6     5
 0.9938568938     5     5     1     1
 0.0403920757     5     5     1     2
 -0.0136240761     5     5     1     4
 -0.0077479605     5     5     1     6
 0.0403920757     5     5     2     1
 0.5762645678     5     5     2     2
 -0.0042604734     5     5     2     4
 -0.0513997331     5     5     2     6
 0.5826710515     5     5     3     3
 -0.0671077036     5     5     3     7
 -0.0229443945     5     5     3     8
 -0.0136240761     5     5     4     1
 -0.0042604734     5     5     4     2
 0.6010509097     5     5     4     4
 -0.0313983864     5     5     4     6
 -0.0077479605     5     5     6     1
 -0.0513997331     5     5     6     2
 -0.0313983864     5     5     6     4
 0.2791988467     5     5     6     6
 -0.0671077036     5     5     7     3
 0.2508548107     5     5     7     7
 0.0400080547     5     5     7     8
 -0.0229443945     5     5     8     3
 0.0400080547     5     5     8     7
 0.3495045598     5     5     8     8
 0.0077479605     5     6     1     5
 0.0513997331     5     6     2     5
 0.0313983864     5     6     4     5
 -0.2791988467     5     6     6     5
 0.0671077036     5     7     3     5
 -0.2508548107     5     7     7     5
 -0.0400080547     5     7     8     5
 0.0229443945     5     8     3     5
 -0.0400080547     5     8     7     5
 -0.3495045598     5     8     8     5
 0.1113340899     6     1     1     2
 0.0552236735     6     1     1     4
 -0.3152240617     6     1     1     6
 0.0008244278     6     1     2     2
 0.0059185058     6     1     2     4
 -0.0014634185     6     1     2     6
 -0.0041491848     6     1     3     3
 0.0035195998     6     1     3     7
 0.0016751995     6     1     3     8
 -0.0001442124     6     1     4     2
 -0.0080547342     6     1     4     4
 0.0032330578     6     1     4     6
 -0.0077479605     6     1     5     5
 0.0015870500     6     1     7     3
 -0.0011617453     6     1     7     7
 -0.0003696706     6     1     7     8
 0.0020898323     6     1     8     3
 -0.0009987633     6     1     8     7
 -0.0003162124     6     1     8     8
 -0.1113340899     6     2     1     1
 0.0055142527     6     2     1     4
 -0.0014634185     6     2     1     6
 -0.0008244278     6     2     2     1
 0.0234159463     6     2     2     4
 -0.2807883350     6     2     2     6
 -0.0525838333     6     2     3     3
 -0.0202365765     6     2     3     7
 0.0014035383     6     2     3     8
 0.0001442124     6     2     4     1
 -0.0522304830     6     2     4     4
 -0.0100876586     6     2     4     6
 -0.0513997331     6     2     5     5
 0.0088911299     6     2     7     3
 -0.0052785463     6     2     7     7
 -0.0042270934     6     2     7     8
 0.0002390402     6     2     8     3
 -0.0074448100     6     2     8     7
 -0.0171658685     6     2     8     8
 0.0018609770     6     3     1     7
 -0.0004327237     6     3     1     8
 -0.0298004178     6     3     2     7
 0.0003590381     6     3     2     8
 0.0041491848     6     3     3     1
 0.0525838333     6     3     3     2
 0.0264958872     6     3     3     4
 -0.2838338757     6     3     3     6
 -0.0068058460     6     3     4     7
 -0.0013562450     6     3     4     8
 -0.0015870500     6     3     7     1
 -0.0088911299     6     3     7     2
 -0.0051462768     6     3     7     4
 0.0201337515     6     3     7     6
 -0.0020898323     6     3     8     1
 -0.0002390402     6     3     8     2
 -0.0013659024     6     3     8     4
 -0.0104945038     6     3     8     6
 -0.0552236735     6     4     1     1
 -0.0055142527     6     4     1     2
 0.0032330578     6     4     1     6
 -0.0059185058     6     4     2     1
 -0.0234159463     6     4     2     2
 -0.0100876586     6     4     2     6
 -0.0264958872     6     4     3     3
 -0.0010609794     6     4     3     7
 0.0007527938     6     4     3     8
 0.0080547342     6     4     4     1
 0.0522304830     6     4     4     2
 -0.2715733816     6     4     4     6
 -0.0313983864     6     4     5     5
 0.0051462768     6     4     7     3
 -0.0045462049     6     4     7     7
 0.0010670352     6     4     7     8
 0.0013659024     6     4     8     3
 -0.0178434938     6     4     8     7
 -0.0073783103     6     4     8     8
 0.0077479605     6     5     5     1
 0.0513997331     6     5     5     2
 0.0313983864     6     5     5     4
 -0.2791988467     6     5     5     6
 0.3152240617     6     6     1     1
 0.0014634185     6     6     1     2
 -0.0032330578     6     6     1     4
 0.0014634185     6     6     2     1
 0.2807883350     6     6     2     2
 0.0100876586     6     6     2     4
 0.2838338757     6     6     3     3
 -0.0201337515     6     6     3     7
 0.0104945038     6     6     3     8
 -0.0032330578     6     6     4     1
 0.0100876586     6     6     4     2
 0.2715733816     6     6     4     4
 0.2791988467     6     6     5     5
 -0.0201337515     6     6     7     3
 0.1705770708     6     6     7     7
 0.0189702763     6     6     7     8
 0.0104945038     6     6     8     3
 0.0189702763     6     6     8     7
 0.2335683698     6     6     8     8
 -0.0018609770     6     7     1     3
 0.0006294847     6     7     1     8
 0.0298004178     6     7     2     3
 0.0032756648     6     7     2     8
 -0.0035195998     6     7     3     1
 0.0202365765     6     7     3     2
 0.0010609794     6     7     3     4
 0.0201337515     6     7     3     6
 0.0068058460     6     7     4     3
 0.0189881500     6     7     4     8
 0.0011617453     6     7     7     1
 0.0052785463     6     7     7     2
 0.0045462049     6     7     7     4
 -0.1705770708     6     7     7     6
 0.0009987633     6     7     8     1
 0.0074448100     6     7     8     2
 0.0178434938     6     7     8     4
 -0.0189702763     6     7     8     6
 0.0004327237     6     8     1     3
 -0.0006294847     6     8     1     7
 -0.0003590381     6     8     2     3
 -0.0032756648     6     8     2     7
 -0.0016751995     6     8     3     1
 -0.0014035383     6     8     3     2
 -0.0007527938     6     8     3     4
 -0.0104945038     6     8     3     6
 0.0013562450     6     8     4     3
 -0.0189881500     6     8     4     7
 0.0003696706     6     8     7     1
 0.0042270934     6     8     7     2
 -0.0010670352     6     8     7     4
 -0.0189702763     6     8     7     6
 0.0003162124     6     8     8     1
 0.0171658685     6     8     8     2
 0.0073783103     6     8     8     4
 -0.2335683698     6     8     8     6
 0.1257354770     7     1     1     3
 -0.2836091715     7     1     1     7
 -0.0650435283     7     1     1     8
 0.0101259075     7     1     2     3
 -0.0034381375     7     1     2     7
 -0.0023766661     7     1     2     8
 0.0021302152     7     1     3     2
 0.0010076349     7     1     3     4
 0.0018609770     7     1     3     6
 -0.0017543692     7     1     4     3
 0.0020984530     7     1     4     7
 0.0021672040     7     1     4     8
 -0.0015870500     7     1     6     3
 0.0011617453     7     1     6     7
 0.0003696706     7     1     6     8
 0.0003027337     7     1     8     2
 0.0011897180     7     1     8     4
 -0.0006294847     7     1     8     6
 0.0072218671     7     2     1     3
 -0.0034381375     7     2     1     7
 -0.0027020243     7     2     1     8
 0.0525255742     7     2     2     3
 -0.2556505622     7     2     2     7
 -0.0429123602     7     2     2     8
 -0.0021302152     7     2     3     1
 -0.0078625104     7     2     3     4
 -0.0298004178     7     2     3     6
 -0.0063900157     7     2     4     3
 -0.0113170913     7     2     4     7
 -0.0095671752     7     2     4     8
 -0.0088911299     7     2     6     3
 0.0052785463     7     2     6     7
 0.0042270934     7     2     6     8
 -0.0003027337     7     2     8     1
 -0.0035055536     7     2     8     4
 -0.0032756648     7     2     8     6
 -0.1257354770     7     3     1     1
 -0.0072218671     7     3     1     2
 0.0026070697     7     3     1     4
 0.0035195998     7     3     1     6
 -0.0101259075     7     3     2     1
 -0.0525255742     7     3     2     2
 -0.0015380760     7     3     2     4
 -0.0202365765     7     3     2     6
 -0.2466392060     7     3     3     7
 -0.0340941367     7     3     3     8
 0.0017543692     7     3     4     1
 0.0063900157     7     3     4     2
 -0.0649824276     7     3     4     4
 -0.0010609794     7     3     4     6
 -0.0671077036     7     3     5     5
 0.0015870500     7     3     6     1
 0.0088911299     7     3     6     2