&FCI NORB= 16,NELEC= 10,MS2=0,
 ORBSYM=1,1,1,1,1,1,1,1,1,1,1,1,1,1,1,1
 ISYM=1,
&END
 0.9891361519     1     1     2     2
 -0.0162325089     1     1     2     3
 0.0759029057     1     1     2     4
 -0.1312213072     1     1     2     6
 0.0446419919     1     1     2     7
 0.0579575432     1     1     2     8
 0.0709727259     1     1     2     9
 0.0279882364     1     1     2    10
 0.0418686073     1     1     2    12
 -0.0759216258     1     1     2    13
 0.1400402748     1     1     2    16
 -0.0162325089     1     1     3     2
 0.8456707218     1     1     3     3
 -0.0568681360     1     1     3     4
 0.0651296414     1     1     3     6
 0.1597231140     1     1     3     7
 -0.0831413680     1     1     3     8
 0.0229362922     1     1     3     9
 0.1155818313     1     1     3    10
 -0.1038392010     1     1     3    12
 -0.1765177733     1     1     3    13
 -0.0466432033     1     1     3    16
 0.0759029057     1     1     4     2
 -0.0568681360     1     1     4     3
 0.8969663492     1     1     4     4
 0.1365901418     1     1     4     6
 0.0384820789     1     1     4     7
 -0.0972115484     1     1     4     8
 0.0453181058     1     1     4     9
 -0.2170120994     1     1     4    10
 -0.0730480468     1     1     4    12
 -0.0477261730     1     1     4    13
 0.0361522630     1     1     4    16
 1.0027823704     1     1     5     5
 0.2706916235     1     1     5    11
 -0.1389623623     1     1     5    14
 -0.0251093658     1     1     5    15
 -0.1312213072     1     1     6     2
 0.0651296414     1     1     6     3
 0.1365901418     1     1     6     4
 0.3709585429     1     1     6     6
 0.0225712714     1     1     6     7
 -0.1294628939     1     1     6     8
 -0.0254679606     1     1     6     9
 -0.0759232702     1     1     6    10
 -0.0830369825     1     1     6    12
 -0.0143943985     1     1     6    13
 -0.0807067569     1     1     6    16
 0.0446419919     1     1     7     2
 0.1597231140     1     1     7     3
 0.0384820789     1     1     7     4
 0.0225712714     1     1     7     6
 0.3075145106     1     1     7     7
 -0.0753614303     1     1     7     8
 0.0473435565     1     1     7     9
 0.0516811419     1     1     7    10
 -0.0633155907     1     1     7    12
 -0.1344626762     1     1     7    13
 0.0080345734     1     1     7    16
 0.0579575432     1     1     8     2
 -0.0831413680     1     1     8     3
 -0.0972115484     1     1     8     4
 -0.1294628939     1     1     8     6
 -0.0753614303     1     1     8     7
 0.3909602087     1     1     8     8
 -0.0113747727     1     1     8     9
 0.0254901240     1     1     8    10
 0.0462319896     1     1     8    12
 0.0452755023     1     1     8    13
 0.0252102168     1     1     8    16
 0.0709727259     1     1     9     2
 0.0229362922     1     1     9     3
 0.0453181058     1     1     9     4
 -0.0254679606     1     1     9     6
 0.0473435565     1     1     9     7
 -0.0113747727     1     1     9     8
 0.3717208293     1     1     9     9
 0.0142815055     1     1     9    10
 -0.0167492882     1     1     9    12
 -0.0436927183     1     1     9    13
 0.0193127887     1     1     9    16
 0.0279882364     1     1    10     2
 0.1155818313     1     1    10     3
 -0.2170120994     1     1    10     4
 -0.0759232702     1     1    10     6
 0.0516811419     1     1    10     7
 0.0254901240     1     1    10     8
 0.0142815055     1     1    10     9
 0.4704545556     1     1    10    10
 0.0223230093     1     1    10    12
 -0.0411125890     1     1    10    13
 -0.0204215693     1     1    10    16
 0.2706916235     1     1    11     5
 0.4956626847     1     1    11    11
 -0.0849030543     1     1    11    14
 -0.0152230381     1     1    11    15
 0.0418686073     1     1    12     2
 -0.1038392010     1     1    12     3
 -0.0730480468     1     1    12     4
 -0.0830369825     1     1    12     6
 -0.0633155907     1     1    12     7
 0.0462319896     1     1    12     8
 -0.0167492882     1     1    12     9
 0.0223230093     1     1    12    10
 0.3930888094     1     1    12    12
 0.0458922880     1     1    12    13
 0.0384737483     1     1    12    16
 -0.0759216258     1     1    13     2
 -0.1765177733     1     1    13     3
 -0.0477261730     1     1    13     4
 -0.0143943985     1     1    13     6
 -0.1344626762     1     1    13     7
 0.0452755023     1     1    13     8
 -0.0436927183     1     1    13     9
 -0.0411125890     1     1    13    10
 0.0458922880     1     1    13    12
 0.4405839469     1     1    13    13
 -0.0039471817     1     1    13    16
 -0.1389623623     1     1    14     5
 -0.0849030543     1     1    14    11
 0.3938798224     1     1    14    14
 -0.0037456340     1     1    14    15
 -0.0251093658     1     1    15     5
 -0.0152230381     1     1    15    11
 -0.0037456340     1     1    15    14
 0.3501926249     1     1    15    15
 0.1400402748     1     1    16     2
 -0.0466432033     1     1    16     3
 0.0361522630     1     1    16     4
 -0.0807067569     1     1    16     6
 0.0080345734     1     1    16     7
 0.0252102168     1     1    16     8
 0.0193127887     1     1    16     9
 -0.0204215693     1     1    16    10
 0.0384737483     1     1    16    12
 -0.0039471817     1     1    16    13
 0.4141883949     1     1    16    16
 -0.9891361519     1     2     2     1
 -0.0038234799     1     2     2     3
 0.0040673471     1     2     2     4
 0.0007802246     1     2     2     6
 -0.0012696352     1     2     2     7
 -0.0001745101     1     2     2     8
 -0.0001305389     1     2     2     9
 -0.0039005131     1     2     2    10
 0.0002091325     1     2     2    12
 0.0019716952     1     2     2    13
 0.0005200654     1     2     2    16
 0.0162325089     1     2     3     1
 -0.0302548741     1     2     3     3
 0.0035712348     1     2     3     4
 -0.0037612276     1     2     3     6
 -0.0115598203     1     2     3     7
 0.0072270937     1     2     3     8
 -0.0037641926     1     2     3     9
 -0.0104802020     1     2     3    10
 0.0085692833     1     2     3    12
 0.0160708819     1     2     3    13
 0.0037441871     1     2     3    16
 -0.0759029057     1     2     4     1
 0.0031322226     1     2     4     3
 -0.0333860614     1     2     4     4
 -0.0106141407     1     2     4     6
 -0.0019693006     1     2     4     7
 0.0088208833     1     2     4     8
 -0.0020325224     1     2     4     9
 0.0172272056     1     2     4    10
 0.0074019295     1     2     4    12
 0.0023767905     1     2     4    13
 -0.0005858458     1     2     4    16
 -0.0420824668     1     2     5     5
 -0.0221825480     1     2     5    11
 0.0119773954     1     2     5    14
 0.0015731830     1     2     5    15
 0.1312213072     1     2     6     1
 -0.0024626115     1     2     6     3
 -0.0093332682     1     2     6     4
 -0.0045266519     1     2     6     6
 -0.0023926224     1     2     6     7
 0.0043309329     1     2     6     8
 -0.0010262965     1     2     6     9
 0.0046174951     1     2     6    10
 0.0039071852     1     2     6    12
 0.0030434859     1     2     6    13
 0.0006719310     1     2     6    16
 -0.0446419919     1     2     7     1
 -0.0090639830     1     2     7     3
 -0.0012975160     1     2     7     4
 -0.0024873473     1     2     7     6
 -0.0043684057     1     2     7     7
 0.0035181775     1     2     7     8
 -0.0015051116     1     2     7     9
 -0.0022360281     1     2     7    10
 0.0038245330     1     2     7    12
 0.0062494236     1     2     7    13
 0.0013239239     1     2     7    16
 -0.0579575432     1     2     8     1
 0.0050185574     1     2     8     3
 0.0071792466     1     2     8     4
 0.0041291189     1     2     8     6
 0.0032598361     1     2     8     7
 -0.0044454111     1     2     8     8
 0.0014699032     1     2     8     9
 -0.0027114547     1     2     8    10
 -0.0041404983     1     2     8    12
 -0.0043533856     1     2     8    13
 -0.0009718566     1     2     8    16
 -0.0709727259     1     2     9     1
 -0.0027677274     1     2     9     3
 -0.0011475254     1     2     9     4
 -0.0008014476     1     2     9     6
 -0.0013709918     1     2     9     7
 0.0013238189     1     2     9     8
 -0.0006217933     1     2     9     9
 0.0000559709     1     2     9    10
 0.0010795268     1     2     9    12
 0.0017265164     1     2     9    13
 0.0001257249     1     2     9    16
 -0.0279882364     1     2    10     1
 -0.0076107866     1     2    10     3
 0.0133719892     1     2    10     4
 0.0036883521     1     2    10     6
 -0.0018904918     1     2    10     7
 -0.0022851347     1     2    10     8
 0.0003454132     1     2    10     9
 -0.0107400452     1     2    10    10
 -0.0009222330     1     2    10    12
 0.0026794710     1     2    10    13
 0.0015436851     1     2    10    16
 -0.0165507729     1     2    11     5
 -0.0110168376     1     2    11    11
 0.0057670863     1     2    11    14
 0.0009866256     1     2    11    15
 -0.0418686073     1     2    12     1
 0.0058426985     1     2    12     3
 0.0052859234     1     2    12     4
 0.0034335704     1     2    12     6
 0.0033979677     1     2    12     7
 -0.0038553840     1     2    12     8
 0.0011235540     1     2    12     9
 -0.0008434365     1     2    12    10
 -0.0038196649     1     2    12    12
 -0.0046794227     1     2    12    13
 -0.0008547063     1     2    12    16
 0.0759216258     1     2    13     1
 0.0115202267     1     2    13     3
 0.0013632352     1     2    13     4
 0.0029641174     1     2    13     6
 0.0057173959     1     2    13     7
 -0.0043412720     1     2    13     8
 0.0017164957     1     2    13     9
 0.0028848560     1     2    13    10
 -0.0048439068     1     2    13    12
 -0.0079461408     1     2    13    13
 -0.0016363755     1     2    13    16
 0.0086784597     1     2    14     5
 0.0055729149     1     2    14    11
 -0.0028234180     1     2    14    14
 -0.0006972664     1     2    14    15
 0.0015151312     1     2    15     5
 0.0012277762     1     2    15    11
 -0.0008414469     1     2    15    14
 -0.0000889247     1     2    15    15
 -0.1400402748     1     2    16     1
 0.0018537112     1     2    16     3
 0.0001778485     1     2    16     4
 0.0007960954     1     2    16     6
 0.0008806045     1     2    16     7
 -0.0009571671     1     2    16     8
 0.0000714822     1     2    16     9
 0.0007198460     1     2    16    10
 -0.0007713812     1     2    16    12
 -0.0011170024     1     2    16    13
 -0.0007379948     1     2    16    16
 0.0162325089     1     3     2     1
 0.0038234799     1     3     2     2
 0.0004449986     1     3     2     4
 -0.0011053297     1     3     2     6
 -0.0017619980     1     3     2     7
 0.0018208194     1     3     2     8
 -0.0007766269     1     3     2     9
 -0.0022643097     1     3     2    10
 0.0022196930     1     3     2    12
 0.0036169297     1     3     2    13
 0.0017299337     1     3     2    16
 -0.8456707218     1     3     3     1
 0.0302548741     1     3     3     2
 0.0071868874     1     3     3     4
 -0.0036626209     1     3     3     6
 0.0022945705     1     3     3     7
 0.0005769668     1     3     3     8
 0.0006020344     1     3     3     9
 -0.0016897898     1     3     3    10
 0.0017701078     1     3     3    12
 -0.0045732426     1     3     3    13
 0.0077534454     1     3     3    16
 0.0568681360     1     3     4     1
 -0.0031322226     1     3     4     2
 0.0038770314     1     3     4     4
 0.0030865368     1     3     4     6
 0.0012890341     1     3     4     7
 -0.0044142332     1     3     4     8
 0.0011624070     1     3     4     9
 -0.0013197209     1     3     4    10
 -0.0002440108     1     3     4    12
 -0.0012408567     1     3     4    13
 -0.0010934152     1     3     4    16
 0.0059460693     1     3     5     5
 0.0038940233     1     3     5    11
 0.0009974880     1     3     5    14
 -0.0017136959     1     3     5    15
 -0.0651296414     1     3     6     1
 0.0024626115     1     3     6     2
 0.0019789587     1     3     6     4
 -0.0005691675     1     3     6     6
 -0.0011605999     1     3     6     7
 -0.0002590863     1     3     6     8
 0.0007358079     1     3     6     9
 -0.0011000817     1     3     6    10
 0.0010129586     1     3     6    12
 0.0006043273     1     3     6    13
 0.0011156082     1     3     6    16
 -0.1597231140     1     3     7     1
 0.0090639830     1     3     7     2
 0.0026242621     1     3     7     4
 -0.0032499969     1     3     7     6
 0.0022434642     1     3     7     7
 0.0008018805     1     3     7     8
 0.0015761221     1     3     7     9
 0.0007179720     1     3     7    10
 0.0001958766     1     3     7    12
 -0.0024715115     1     3     7    13
 0.0030786658     1     3     7    16
 0.0831413680     1     3     8     1
 -0.0050185574     1     3     8     2
 -0.0023093622     1     3     8     4
 0.0014156044     1     3     8     6
 -0.0000762637     1     3     8     7
 -0.0019836048     1     3     8     8
 -0.0003103778     1     3     8     9
 -0.0006940589     1     3     8    10
 -0.0017126398     1     3     8    12
 0.0004329936     1     3     8    13
 -0.0026471129     1     3     8    16
 -0.0229362922     1     3     9     1
 0.0027677274     1     3     9     2
 0.0006362991     1     3     9     4
 -0.0002334400     1     3     9     6
 0.0016535718     1     3     9     7
 0.0001256492     1     3     9     8
 0.0008480880     1     3     9     9
 0.0030362922     1     3     9    10
 -0.0009272245     1     3     9    12
 -0.0039780638     1     3     9    13
 -0.0004900272     1     3     9    16
 -0.1155818313     1     3    10     1
 0.0076107866     1     3    10     2
 0.0001851434     1     3    10     4
 -0.0032046640     1     3    10     6
 0.0013013921     1     3    10     7
 0.0012557016     1     3    10     8
 0.0025537521     1     3    10     9
 0.0024754372     1     3    10    10
 0.0017565312     1     3    10    12
 -0.0020172361     1     3    10    13
 0.0028895650     1     3    10    16
 0.0021044480     1     3    11     5
 -0.0000214765     1     3    11    11
 -0.0012784487     1     3    11    14
 -0.0005475590     1     3    11    15
 0.1038392010     1     3    12     1
 -0.0058426985     1     3    12     2
 -0.0022069290     1     3    12     4
 0.0013866531     1     3    12     6
 -0.0015663438     1     3    12     7
 -0.0004453113     1     3    12     8
 -0.0016817832     1     3    12     9
 0.0015542551     1     3    12    10
 0.0004364672     1     3    12    12
 0.0022734944     1     3    12    13
 -0.0011112358     1     3    12    16
 0.1765177733     1     3    13     1
 -0.0115202267     1     3    13     2
 -0.0034157036     1     3    13     4
 0.0036803504     1     3    13     6
 -0.0019486409     1     3    13     7
 -0.0011301927     1     3    13     8
 -0.0037159475     1     3    13     9
 -0.0006523487     1     3    13    10
 -0.0005526445     1     3    13    12
 0.0037414007     1     3    13    13
 -0.0053520125     1     3    13    16
 -0.0015542142     1     3    14     5
 -0.0032890177     1     3    14    11
 0.0022011803     1     3    14    14
 -0.0018316550     1     3    14    15
 -0.0001412404     1     3    15     5
 0.0002567227     1     3    15    11
 -0.0024297789     1     3    15    14
 0.0007220425     1     3    15    15
 0.0466432033     1     3    16     1
 -0.0018537112     1     3    16     2
 -0.0008318829     1     3    16     4
 0.0006861242     1     3    16     6
 -0.0001647391     1     3    16     7
 -0.0009143292     1     3    16     8
 -0.0015091087     1     3    16     9
 0.0002848560     1     3    16    10
 0.0008394091     1     3    16    12
 -0.0006132959     1     3    16    13
 -0.0004158120     1     3    16    16
 -0.0759029057     1     4     2     1
 -0.0040673471     1     4     2     2
 -0.0004449986     1     4     2     3
 -0.0005111774     1     4     2     6
 -0.0005606975     1     4     2     7
 0.0010548815     1     4     2     8
 -0.0007614118     1     4     2     9
 0.0027708221     1     4     2    10
 0.0016781295     1     4     2    12
 0.0008962128     1     4     2    13
 -0.0007802825     1     4     2    16
 0.0568681360     1     4     3     1
 -0.0035712348     1     4     3     2
 -0.0071868874     1     4     3     3
 0.0009796161     1     4     3     6
 -0.0014959226     1     4     3     7
 -0.0019724498     1     4     3     8
 0.0005513289     1     4     3     9
 -0.0014897350     1     4     3    10
 0.0021067066     1     4     3    12
 0.0024237597     1     4     3    13
 -0.0002036429     1     4     3    16
 -0.8969663492     1     4     4     1
 0.0333860614     1     4     4     2
 -0.0038770314     1     4     4     3
 -0.0080196057     1     4     4     6
 0.0016401066     1     4     4     7
 0.0040722909     1     4     4     8
 0.0052200542     1     4     4     9
 0.0040763130     1     4     4    10
 0.0014219708     1     4     4    12
 -0.0016661124     1     4     4    13
 0.0086703160     1     4     4    16
 -0.0107169247     1     4     5     5
 -0.0047497775     1     4     5    11
 0.0034034673     1     4     5    14
 0.0032434251     1     4     5    15
 -0.1365901418     1     4     6     1
 0.0093332682     1     4     6     2
 -0.0019789587     1     4     6     3
 -0.0049893561     1     4     6     6
 -0.0003879016     1     4     6     7
 0.0028066649     1     4     6     8
 0.0012601323     1     4     6     9
 0.0028133332     1     4     6    10
 0.0021928472     1     4     6    12
 0.0003021288     1     4     6    13
 0.0031679589     1     4     6    16
 -0.0384820789     1     4     7     1
 0.0012975160     1     4     7     2
 -0.0026242621     1     4     7     3
 -0.0011529308     1     4     7     6
 -0.0017913820     1     4     7     7
 0.0011139705     1     4     7     8
 0.0001093433     1     4     7     9
 -0.0011640493     1     4     7    10
 0.0011495297     1     4     7    12
 0.0015253680     1     4     7    13
 0.0004099287     1     4     7    16
 0.0972115484     1     4     8     1
 -0.0071792466     1     4     8     2
 0.0023093622     1     4     8     3
 0.0038696336     1     4     8     6
 0.0013258761     1     4     8     7
 -0.0044706842     1     4     8     8
 -0.0017330365     1     4     8     9
 -0.0006883641     1     4     8    10
 -0.0030410513     1     4     8    12
 -0.0017699288     1     4     8    13
 -0.0024130951     1     4     8    16
 -0.0453181058     1     4     9     1
 0.0011475254     1     4     9     2
 -0.0006362991     1     4     9     3
 -0.0010409774     1     4     9     6
 -0.0005556876     1     4     9     7
 -0.0000213742     1     4     9     8
 -0.0010221405     1     4     9     9
 -0.0004527327     1     4     9    10
 0.0021907760     1     4     9    12
 0.0010166335     1     4     9    13
 -0.0001207206     1     4     9    16
 0.2170120994     1     4    10     1
 -0.0133719892     1     4    10     2
 -0.0001851434     1     4    10     3
 0.0057890346     1     4    10     6
 -0.0023563788     1     4    10     7
 -0.0022654820     1     4    10     8
 -0.0031645999     1     4    10     9
 -0.0017121288     1     4    10    10
 -0.0017461061     1     4    10    12
 0.0045085178     1     4    10    13
 -0.0058859665     1     4    10    16
 -0.0047509107     1     4    11     5
 -0.0043893916     1     4    11    11
 0.0008247356     1     4    11    14
 -0.0006058102     1     4    11    15
 0.0730480468     1     4    12     1
 -0.0052859234     1     4    12     2
 0.0022069290     1     4    12     3
 0.0031153547     1     4    12     6
 0.0000147321     1     4    12     7
 -0.0024387394     1     4    12     8
 0.0003880622     1     4    12     9
 -0.0025679988     1     4    12    10
 -0.0022466240     1     4    12    12
 0.0008001906     1     4    12    13
 -0.0022995375     1     4    12    16
 0.0477261730     1     4    13     1
 -0.0013632352     1     4    13     2
 0.0034157036     1     4    13     3
 0.0009592068     1     4    13     6
 0.0012674187     1     4    13     7
 -0.0010877907     1     4    13     8
 0.0000230278     1     4    13     9
 0.0030970824     1     4    13    10
 -0.0004392884     1     4    13    12
 -0.0015913948     1     4    13    13
 -0.0019544182     1     4    13    16
 0.0021889516     1     4    14     5
 0.0001218769     1     4    14    11
 -0.0021897484     1     4    14    14
 0.0000598798     1     4    14    15
 0.0001257059     1     4    15     5
 -0.0023811402     1     4    15    11
 0.0009356372     1     4    15    14
 -0.0005746860     1     4    15    15
 -0.0361522630     1     4    16     1
 -0.0001778485     1     4    16     2
 0.0008318829     1     4    16     3
 0.0001984718     1     4    16     6
 -0.0000804245     1     4    16     7
 0.0002421020     1     4    16     8
 -0.0006819235     1     4    16     9
 -0.0013429680     1     4    16    10
 -0.0005415072     1     4    16    12
 -0.0014125245     1     4    16    13
 -0.0007936863     1     4    16    16
 -0.0042934023     1     5     2    11
 0.0026117651     1     5     2    14
 -0.0000604524     1     5     2    15
 0.0016943735     1     5     3    11
 0.0027380266     1     5     3    14
 -0.0015806516     1     5     3    15
 0.0003501234     1     5     4    11
 0.0010929387     1     5     4    14
 0.0031428182     1     5     4    15
 -1.0027823704     1     5     5     1
 0.0420824668     1     5     5     2
 -0.0059460693     1     5     5     3
 0.0107169247     1     5     5     4
 -0.0086740017     1     5     5     6
 0.0019570048     1     5     5     7
 0.0057316527     1     5     5     8
 0.0077189015     1     5     5     9
 -0.0008917325     1     5     5    10
 0.0043298469     1     5     5    12
 -0.0060427781     1     5     5    13
 0.0090451473     1     5     5    16
 -0.0014082918     1     5     6    11
 0.0009031715     1     5     6    14
 0.0004535094     1     5     6    15
 0.0006711674     1     5     7    11
 -0.0006073436     1     5     7    14
 -0.0001280974     1     5     7    15
 -0.0010925605     1     5     8    11
 0.0001098291     1     5     8    14
 0.0004326938     1     5     8    15
 -0.0009179419     1     5     9    11
 0.0007841961     1     5     9    14
 0.0003820938     1     5     9    15
 0.0000228599     1     5    10    11
 0.0001262885     1     5    10    14
 0.0002185058     1     5    10    15
 -0.2706916235     1     5    11     1
 0.0165507729     1     5    11     2
 -0.0021044480     1     5    11     3
 0.0047509107     1     5    11     4
 -0.0065636279     1     5    11     6
 0.0013000480     1     5    11     7
 0.0025477516     1     5    11     8
 0.0030992712     1     5    11     9
 -0.0001336946     1     5    11    10
 0.0024607062     1     5    11    12
 -0.0022249212     1     5    11    13
 0.0083200153     1     5    11    16
 -0.0003887153     1     5    12    11
 0.0001554395     1     5    12    14
 -0.0003639523     1     5    12    15
 0.0004739714     1     5    13    11
 -0.0002530419     1     5    13    14
 0.0000605678     1     5    13    15
 0.1389623623     1     5    14     1
 -0.0086784597     1     5    14     2
 0.0015542142     1     5    14     3
 -0.0021889516     1     5    14     4
 0.0028380671     1     5    14     6
 -0.0023158078     1     5    14     7
 -0.0007073348     1     5    14     8
 -0.0018056157     1     5    14     9
 -0.0002576174     1     5    14    10
 -0.0001361971     1     5    14    12
 0.0030825515     1     5    14    13
 -0.0045387806     1     5    14    16
 0.0251093658     1     5    15     1
 -0.0015151312     1     5    15     2
 0.0001412404     1     5    15     3
 -0.0001257059     1     5    15     4
 0.0000462338     1     5    15     6
 0.0001144448     1     5    15     7
 0.0006556118     1     5    15     8
 0.0000100910     1     5    15     9
 0.0021620658     1     5    15    10
 -0.0003133939     1     5    15    12
 -0.0001436342     1     5    15    13
 -0.0017022348     1     5    15    16
 0.0034753652     1     5    16    11
 -0.0022916105     1     5    16    14
 -0.0011842251     1     5    16    15
 0.1312213072     1     6     2     1
 -0.0007802246     1     6     2     2
 0.0011053297     1     6     2     3
 0.0005111774     1     6     2     4
 0.0000926497     1     6     2     7
 0.0002070188     1     6     2     8
 -0.0002150681     1     6     2     9
 0.0009513924     1     6     2    10
 0.0004705688     1     6     2    12
 0.0000615212     1     6     2    13
 -0.0001036501     1     6     2    16
 -0.0651296414     1     6     3     1
 0.0037612276     1     6     3     2
 0.0036626209     1     6     3     3
 -0.0009796161     1     6     3     4
 0.0020957101     1     6     3     7
 -0.0017003453     1     6     3     8
 0.0009904507     1     6     3     9
 0.0021215143     1     6     3    10
 -0.0003790302     1     6     3    12
 -0.0031031884     1     6     3    13
 0.0004380199     1     6     3    16
 -0.1365901418     1     6     4     1
 0.0106141407     1     6     4     2
 -0.0030865368     1     6     4     3
 0.0080196057     1     6     4     4
 0.0007786452     1     6     4     7
 -0.0010996285     1     6     4     8
 0.0023380956     1     6     4     9
 -0.0030360899     1     6     4    10
 -0.0009468352     1     6     4    12
 -0.0006698917     1     6     4    13
 0.0030298121     1     6     4    16
 0.0086740017     1     6     5     5
 0.0051429992     1     6     5    11
 -0.0019179442     1     6     5    14
 0.0004186133     1     6     5    15
 -0.3709585429     1     6     6     1
 0.0045266519     1     6     6     2
 0.0005691675     1     6     6     3
 0.0049893561     1     6     6     4
 0.0007760012     1     6     6     7
 -0.0008774041     1     6     6     8
 0.0011259645     1     6     6     9
 -0.0011696328     1     6     6    10
 -0.0007119179     1     6     6    12
 -0.0012559495     1     6     6    13
 0.0011908054     1     6     6    16
 -0.0225712714     1     6     7     1
 0.0024873473     1     6     7     2
 0.0032499969     1     6     7     3
 0.0011529308     1     6     7     4
 0.0016068701     1     6     7     7
 -0.0008799464     1     6     7     8
 0.0009480162     1     6     7     9
 0.0006580515     1     6     7    10
 -0.0011297749     1     6     7    12
 -0.0024950806     1     6     7    13
 0.0001988089     1     6     7    16
 0.1294628939     1     6     8     1
 -0.0041291189     1     6     8     2
 -0.0014156044     1     6     8     3
 -0.0038696336     1     6     8     4
 -0.0009145118     1     6     8     7
 -0.0001523986     1     6     8     8
 -0.0012981582     1     6     8     9
 0.0007658354     1     6     8    10
 0.0003211078     1     6     8    12
 0.0013182384     1     6     8    13
 -0.0010503922     1     6     8    16
 0.0254679606     1     6     9     1
 0.0008014476     1     6     9     2
 0.0002334400     1     6     9     3
 0.0010409774     1     6     9     4
 0.0003632205     1     6     9     7
 -0.0004368900     1     6     9     8
 -0.0000948389     1     6     9     9
 -0.0000636197     1     6     9    10
 0.0002636272     1     6     9    12
 -0.0006551226     1     6     9    13
 -0.0001328986     1     6     9    16
 0.0759232702     1     6    10     1
 -0.0036883521     1     6    10     2
 0.0032046640     1     6    10     3
 -0.0057890346     1     6    10     4
 0.0001266258     1     6    10     7
 0.0003324740     1     6    10     8
 -0.0007864819     1     6    10     9
 0.0039303375     1     6    10    10
 0.0000768951     1     6    10    12
 0.0001828060     1     6    10    13
 -0.0021133746     1     6    10    16
 0.0065636279     1     6    11     5
 0.0030731662     1     6    11    11
 -0.0023545964     1     6    11    14
 -0.0007085409     1     6    11    15
 0.0830369825     1     6    12     1
 -0.0034335704     1     6    12     2
 -0.0013866531     1     6    12     3
 -0.0031153547     1     6    12     4
 -0.0015154498     1     6    12     7
 0.0005644449     1     6    12     8
 -0.0006506970     1     6    12     9
 0.0000048158     1     6    12    10
 0.0007069995     1     6    12    12
 0.0024081197     1     6    12    13
 -0.0007968483     1     6    12    16
 0.0143943985     1     6    13     1
 -0.0029641174     1     6    13     2
 -0.0036803504     1     6    13     3
 -0.0009592068     1     6    13     4
 -0.0020659198     1     6    13     7
 0.0009652871     1     6    13     8
 -0.0013060792     1     6    13     9
 -0.0003538535     1     6    13    10
 0.0015123495     1     6    13    12
 0.0031041128     1     6    13    13
 -0.0010291270     1     6    13    16
 -0.0028380671     1     6    14     5
 -0.0024506620     1     6    14    11
 0.0005826309     1     6    14    14
 -0.0000628910     1     6    14    15
 -0.0000462338     1     6    15     5
 -0.0008964039     1     6    15    11
 0.0000271016     1     6    15    14
 -0.0000992175     1     6    15    15
 0.0807067569     1     6    16     1
 -0.0007960954     1     6    16     2
 -0.0006861242     1     6    16     3
 -0.0001984718     1     6    16     4
 -0.0005036394     1     6    16     7
 0.0002594936     1     6    16     8
 -0.0006131418     1     6    16     9
 -0.0007777531     1     6    16    10
 0.0002747267     1     6    16    12
 0.0000193741     1     6    16    13
 -0.0002054452     1     6    16    16
 -0.0446419919     1     7     2     1
 0.0012696352     1     7     2     2
 0.0017619980     1     7     2     3
 0.0005606975     1     7     2     4
 -0.0000926497     1     7     2     6
 0.0002513652     1     7     2     8
 -0.0001312320     1     7     2     9
 -0.0003519998     1     7     2    10
 0.0004031011     1     7     2    12
 0.0005179477     1     7     2    13
 0.0004294238     1     7     2    16