&FCI NORB= 13,NELEC= 10,MS2=0,
 ORBSYM=1,1,1,1,1,1,1,1,1,1,1,1,1
 ISYM=1,
&END
 0.9831516665     1     1     2     2
 0.0724251973     1     1     2     4
 -0.1818542930     1     1     2     6
 0.1469610115     1     1     2     9
 -0.0170078570     1     1     2    10
 0.1254760991     1     1     2    13
 0.8566345971     1     1     3     3
 -0.2267618906     1     1     3     7
 0.1503718182     1     1     3     8
 -0.3045151661     1     1     3    12
 0.0724251973     1     1     4     2
 0.9533411116     1     1     4     4
 0.1043757950     1     1     4     6
 -0.1564171760     1     1     4     9
 -0.3599520604     1     1     4    10
 0.0815826989     1     1     4    13
 1.0082726118     1     1     5     5
 0.4560700471     1     1     5    11
 -0.1818542930     1     1     6     2
 0.1043757950     1     1     6     4
 0.3990692750     1     1     6     6
 -0.1605438853     1     1     6     9
 -0.0848437353     1     1     6    10
 -0.0589176025     1     1     6    13
 -0.2267618906     1     1     7     3
 0.3924281897     1     1     7     7
 -0.1544012374     1     1     7     8
 0.2065804880     1     1     7    12
 0.1503718182     1     1     8     3
 -0.1544012374     1     1     8     7
 0.5538727133     1     1     8     8
 -0.1089760654     1     1     8    12
 0.1469610115     1     1     9     2
 -0.1564171760     1     1     9     4
 -0.1605438853     1     1     9     6
 0.5746011009     1     1     9     9
 0.1223798598     1     1     9    10
 0.0005544190     1     1     9    13
 -0.0170078570     1     1    10     2
 -0.3599520604     1     1    10     4
 -0.0848437353     1     1    10     6
 0.1223798598     1     1    10     9
 0.7946275851     1     1    10    10
 -0.0480892259     1     1    10    13
 0.4560700471     1     1    11     5
 0.9483930373     1     1    11    11
 -0.3045151661     1     1    12     3
 0.2065804880     1     1    12     7
 -0.1089760654     1     1    12     8
 0.7471673059     1     1    12    12
 0.1254760991     1     1    13     2
 0.0815826989     1     1    13     4
 -0.0589176025     1     1    13     6
 0.0005544190     1     1    13     9
 -0.0480892259     1     1    13    10
 0.5637784338     1     1    13    13
 -0.9831516665     1     2     2     1
 -0.0068373836     1     2     2     4
 -0.0026034760     1     2     2     6
 0.0044872581     1     2     2     9
 0.0089807873     1     2     2    10
 -0.0007753135     1     2     2    13
 0.0297996156     1     2     3     3
 -0.0165646730     1     2     3     7
 0.0165067542     1     2     3     8
 -0.0333398904     1     2     3    12
 -0.0724251973     1     2     4     1
 0.0355377085     1     2     4     4
 0.0096058005     1     2     4     6
 -0.0169326998     1     2     4     9
 -0.0359510861     1     2     4    10
 0.0049843702     1     2     4    13
 0.0412896819     1     2     5     5
 0.0479854906     1     2     5    11
 0.1818542930     1     2     6     1
 0.0096408783     1     2     6     4
 0.0025945174     1     2     6     6
 -0.0049134032     1     2     6     9
 -0.0101994381     1     2     6    10
 0.0013349068     1     2     6    13
 -0.0131844569     1     2     7     3
 0.0073757629     1     2     7     7
 -0.0074473316     1     2     7     8
 0.0153297989     1     2     7    12
 0.0116481889     1     2     8     3
 -0.0064890804     1     2     8     7
 0.0061739358     1     2     8     8
 -0.0127470449     1     2     8    12
 -0.1469610115     1     2     9     1
 -0.0143139437     1     2     9     4
 -0.0039667200     1     2     9     6
 0.0067858499     1     2     9     9
 0.0158270869     1     2     9    10
 -0.0025901037     1     2     9    13
 0.0170078570     1     2    10     1
 -0.0239937713     1     2    10     4
 -0.0061593944     1     2    10     6
 0.0119775735     1     2    10     9
 0.0266620146     1     2    10    10
 -0.0052676988     1     2    10    13
 0.0318053891     1     2    11     5
 0.0405042659     1     2    11    11
 -0.0205444074     1     2    12     3
 0.0119098749     1     2    12     7
 -0.0113351829     1     2    12     8
 0.0253747937     1     2    12    12
 -0.1254760991     1     2    13     1
 0.0027529609     1     2    13     4
 0.0006574726     1     2    13     6
 -0.0017458668     1     2    13     9
 -0.0045344722     1     2    13    10
 0.0012090683     1     2    13    13
 -0.0031578096     1     3     2     7
 0.0046652085     1     3     2     8
 -0.0123978428     1     3     2    12
 -0.8566345971     1     3     3     1
 -0.0297996156     1     3     3     2
 -0.0103211469     1     3     3     4
 0.0048396795     1     3     3     6
 0.0007346725     1     3     3     9
 0.0050459787     1     3     3    10
 -0.0115481411     1     3     3    13
 0.0017903917     1     3     4     7
 -0.0060086145     1     3     4     8
 -0.0022110731     1     3     4    12
 -0.0024964920     1     3     6     7
 -0.0003690875     1     3     6     8
 -0.0017535736     1     3     6    12
 0.2267618906     1     3     7     1
 0.0131844569     1     3     7     2
 0.0045272718     1     3     7     4
 -0.0061493916     1     3     7     6
 0.0033834064     1     3     7     9
 -0.0010256573     1     3     7    10
 0.0051963148     1     3     7    13
 -0.1503718182     1     3     8     1
 -0.0116481889     1     3     8     2
 -0.0036641529     1     3     8     4
 0.0048199179     1     3     8     6
 -0.0088485313     1     3     8     9
 -0.0032492649     1     3     8    10
 -0.0057438506     1     3     8    13
 0.0022143491     1     3     9     7
 -0.0048663479     1     3     9     8
 0.0053513718     1     3     9    12
 -0.0011444138     1     3    10     7
 0.0021632982     1     3    10     8
 -0.0041499397     1     3    10    12
 0.3045151661     1     3    12     1
 0.0205444074     1     3    12     2
 0.0071942448     1     3    12     4
 -0.0082192780     1     3    12     6
 0.0059356911     1     3    12     9
 -0.0078639990     1     3    12    10
 0.0093929584     1     3    12    13
 -0.0008280232     1     3    13     7
 -0.0006758474     1     3    13     8
 -0.0037125266     1     3    13    12
 -0.0724251973     1     4     2     1
 0.0068373836     1     4     2     2
 -0.0001634024     1     4     2     6
 -0.0024652461     1     4     2     9
 -0.0114940286     1     4     2    10
 0.0022051447     1     4     2    13
 0.0103211469     1     4     3     3
 -0.0027399351     1     4     3     7
 -0.0024075861     1     4     3     8
 -0.0095253164     1     4     3    12
 -0.9533411116     1     4     4     1
 -0.0355377085     1     4     4     2
 0.0109782157     1     4     4     6
 -0.0129620455     1     4     4     9
 -0.0061602014     1     4     4    10
 0.0004310656     1     4     4    13
 0.0139504965     1     4     5     5
 0.0152643119     1     4     5    11
 -0.1043757950     1     4     6     1
 -0.0096408783     1     4     6     2
 0.0056450139     1     4     6     6
 -0.0052140523     1     4     6     9
 -0.0023221521     1     4     6    10
 -0.0011181479     1     4     6    13
 -0.0045272718     1     4     7     3
 0.0038856110     1     4     7     7
 -0.0016896214     1     4     7     8
 0.0067586765     1     4     7    12
 0.0036641529     1     4     8     3
 -0.0040966693     1     4     8     7
 0.0062010590     1     4     8     8
 -0.0108246215     1     4     8    12
 0.1564171760     1     4     9     1
 0.0143139437     1     4     9     2
 -0.0070464488     1     4     9     6
 0.0111176980     1     4     9     9
 -0.0002236010     1     4     9    10
 0.0035339804     1     4     9    13
 0.3599520604     1     4    10     1
 0.0239937713     1     4    10     2
 -0.0122397607     1     4    10     6
 0.0104167343     1     4    10     9
 0.0045758273     1     4    10    10
 0.0096044126     1     4    10    13
 0.0109253531     1     4    11     5
 0.0135424790     1     4    11    11
 -0.0071942448     1     4    12     3
 0.0035475667     1     4    12     7
 -0.0028213526     1     4    12     8
 0.0056196199     1     4    12    12
 -0.0815826989     1     4    13     1
 -0.0027529609     1     4    13     2
 0.0003481327     1     4    13     6
 0.0018279155     1     4    13     9
 0.0091066113     1     4    13    10
 0.0004459862     1     4    13    13
 0.0156377113     1     5     2    11
 0.0042570738     1     5     4    11
 -1.0082726118     1     5     5     1
 -0.0412896819     1     5     5     2
 -0.0139504965     1     5     5     4
 0.0103221072     1     5     5     6
 -0.0124331967     1     5     5     9
 0.0093164994     1     5     5    10
 -0.0124041936     1     5     5    13
 0.0002629799     1     5     6    11
 0.0047255867     1     5     9    11
 -0.0024892940     1     5    10    11
 -0.4560700471     1     5    11     1
 -0.0318053891     1     5    11     2
 -0.0109253531     1     5    11     4
 0.0131373183     1     5    11     6
 -0.0108393177     1     5    11     9
 0.0078220597     1     5    11    10
 -0.0144035303     1     5    11    13
 0.0005707290     1     5    13    11
 0.1818542930     1     6     2     1
 0.0026034760     1     6     2     2
 0.0001634024     1     6     2     4
 -0.0009461013     1     6     2     9
 -0.0039089858     1     6     2    10
 0.0006360477     1     6     2    13
 -0.0048396795     1     6     3     3
 0.0036576115     1     6     3     7
 -0.0051909557     1     6     3     8
 0.0065345184     1     6     3    12
 -0.1043757950     1     6     4     1
 -0.0096058005     1     6     4     2
 -0.0109782157     1     6     4     4
 0.0018802555     1     6     4     9
 0.0099602820     1     6     4    10
 -0.0015207559     1     6     4    13
 -0.0103221072     1     6     5     5
 -0.0126904212     1     6     5    11
 -0.3990692750     1     6     6     1
 -0.0025945174     1     6     6     2
 -0.0056450139     1     6     6     4
 0.0013456470     1     6     6     9
 0.0051271427     1     6     6    10
 -0.0011327915     1     6     6    13
 0.0061493916     1     6     7     3
 -0.0029158756     1     6     7     7
 0.0034366185     1     6     7     8
 -0.0063820677     1     6     7    12
 -0.0048199179     1     6     8     3
 0.0020179676     1     6     8     7
 -0.0012159775     1     6     8     8
 0.0034118627     1     6     8    12
 0.1605438853     1     6     9     1
 0.0039667200     1     6     9     2
 0.0070464488     1     6     9     4
 -0.0002589250     1     6     9     9
 -0.0075549185     1     6     9    10
 0.0021357844     1     6     9    13
 0.0848437353     1     6    10     1
 0.0061593944     1     6    10     2
 0.0122397607     1     6    10     4
 -0.0032865100     1     6    10     9
 -0.0116667374     1     6    10    10
 0.0049317935     1     6    10    13
 -0.0131373183     1     6    11     5
 -0.0158265036     1     6    11    11
 0.0082192780     1     6    12     3
 -0.0047152463     1     6    12     7
 0.0047176661     1     6    12     8
 -0.0103561261     1     6    12    12
 0.0589176025     1     6    13     1
 -0.0006574726     1     6    13     2
 -0.0003481327     1     6    13     4
 0.0007903793     1     6    13     9
 0.0033904189     1     6    13    10
 -0.0000345456     1     6    13    13
 0.0031578096     1     7     2     3
 -0.0009403669     1     7     2     8
 0.0032444703     1     7     2    12
 0.2267618906     1     7     3     1
 0.0165646730     1     7     3     2
 0.0027399351     1     7     3     4
 -0.0036576115     1     7     3     6
 0.0011791781     1     7     3     9
 0.0001443729     1     7     3    10
 0.0060343359     1     7     3    13
 -0.0017903917     1     7     4     3
 0.0023699901     1     7     4     8
 0.0031046356     1     7     4    12
 0.0024964920     1     7     6     3
 0.0014177839     1     7     6     8
 -0.0016545298     1     7     6    12
 -0.3924281897     1     7     7     1
 -0.0073757629     1     7     7     2
 -0.0038856110     1     7     7     4
 0.0029158756     1     7     7     6
 -0.0012288104     1     7     7     9
 0.0018555382     1     7     7    10
 -0.0030378481     1     7     7    13
 0.1544012374     1     7     8     1
 0.0064890804     1     7     8     2
 0.0040966693     1     7     8     4
 -0.0020179676     1     7     8     6
 0.0036999355     1     7     8     9
 -0.0002872545     1     7     8    10
 0.0034169095     1     7     8    13
 -0.0022143491     1     7     9     3
 0.0014624333     1     7     9     8
 -0.0004965641     1     7     9    12
 0.0011444138     1     7    10     3
 -0.0005862355     1     7    10     8
 0.0009873925     1     7    10    12
 -0.2065804880     1     7    12     1
 -0.0119098749     1     7    12     2
 -0.0035475667     1     7    12     4
 0.0047152463     1     7    12     6
 -0.0035846863     1     7    12     9
 0.0037472127     1     7    12    10
 -0.0051257475     1     7    12    13
 0.0008280232     1     7    13     3
 0.0007679402     1     7    13     8
 0.0011444131     1     7    13    12
 -0.0046652085     1     8     2     3
 0.0009403669     1     8     2     7
 -0.0013035395     1     8     2    12
 -0.1503718182     1     8     3     1
 -0.0165067542     1     8     3     2
 0.0024075861     1     8     3     4
 0.0051909557     1     8     3     6
 -0.0039649463     1     8     3     9
 -0.0052838908     1     8     3    10
 -0.0051495883     1     8     3    13
 0.0060086145     1     8     4     3
 -0.0023699901     1     8     4     7
 -0.0077912819     1     8     4    12
 0.0003690875     1     8     6     3
 -0.0014177839     1     8     6     7
 -0.0013221644     1     8     6    12
 0.1544012374     1     8     7     1
 0.0074473316     1     8     7     2
 0.0016896214     1     8     7     4
 -0.0034366185     1     8     7     6
 0.0022430668     1     8     7     9
 0.0003125524     1     8     7    10
 0.0026497398     1     8     7    13
 -0.5538727133     1     8     8     1
 -0.0061739358     1     8     8     2
 -0.0062010590     1     8     8     4
 0.0012159775     1     8     8     6
 -0.0023788318     1     8     8     9
 0.0024082221     1     8     8    10
 -0.0034452634     1     8     8    13
 0.0048663479     1     8     9     3
 -0.0014624333     1     8     9     7
 -0.0023887586     1     8     9    12
 -0.0021632982     1     8    10     3
 0.0005862355     1     8    10     7
 0.0003175680     1     8    10    12
 0.1089760654     1     8    12     1
 0.0113351829     1     8    12     2
 0.0028213526     1     8    12     4
 -0.0047176661     1     8    12     6
 0.0037292903     1     8    12     9
 -0.0029266054     1     8    12    10
 0.0048703628     1     8    12    13
 0.0006758474     1     8    13     3
 -0.0007679402     1     8    13     7
 -0.0025796504     1     8    13    12
 -0.1469610115     1     9     2     1
 -0.0044872581     1     9     2     2
 0.0024652461     1     9     2     4
 0.0009461013     1     9     2     6
 0.0037514217     1     9     2    10
 -0.0008349411     1     9     2    13
 -0.0007346725     1     9     3     3
 -0.0011791781     1     9     3     7
 0.0039649463     1     9     3     8
 -0.0007153298     1     9     3    12
 0.1564171760     1     9     4     1
 0.0169326998     1     9     4     2
 0.0129620455     1     9     4     4
 -0.0018802555     1     9     4     6
 -0.0106655771     1     9     4    10
 0.0018298115     1     9     4    13
 0.0124331967     1     9     5     5
 0.0152188977     1     9     5    11
 0.1605438853     1     9     6     1
 0.0049134032     1     9     6     2
 0.0052140523     1     9     6     4
 -0.0013456470     1     9     6     6
 -0.0042670692     1     9     6    10
 0.0013460193     1     9     6    13
 -0.0033834064     1     9     7     3
 0.0012288104     1     9     7     7
 -0.0022430668     1     9     7     8
 0.0030800623     1     9     7    12
 0.0088485313     1     9     8     3
 -0.0036999355     1     9     8     7
 0.0023788318     1     9     8     8
 -0.0061150531     1     9     8    12
 -0.5746011009     1     9     9     1
 -0.0067858499     1     9     9     2
 -0.0111176980     1     9     9     4
 0.0002589250     1     9     9     6
 0.0116241789     1     9     9    10
 -0.0034437485     1     9     9    13
 -0.1223798598     1     9    10     1
 -0.0119775735     1     9    10     2
 -0.0104167343     1     9    10     4
 0.0032865100     1     9    10     6
 0.0090821490     1     9    10    10
 -0.0068410393     1     9    10    13
 0.0108393177     1     9    11     5
 0.0134120859     1     9    11    11
 -0.0059356911     1     9    12     3
 0.0035846863     1     9    12     7
 -0.0037292903     1     9    12     8
 0.0085054015     1     9    12    12
 -0.0005544190     1     9    13     1
 0.0017458668     1     9    13     2
 -0.0018279155     1     9    13     4
 -0.0007903793     1     9    13     6
 -0.0031229809     1     9    13    10
 -0.0001893563     1     9    13    13
 0.0170078570     1    10     2     1
 -0.0089807873     1    10     2     2
 0.0114940286     1    10     2     4
 0.0039089858     1    10     2     6
 -0.0037514217     1    10     2     9
 -0.0007541634     1    10     2    13
 -0.0050459787     1    10     3     3
 -0.0001443729     1    10     3     7
 0.0052838908     1    10     3     8
 0.0037063020     1    10     3    12
 0.3599520604     1    10     4     1
 0.0359510861     1    10     4     2
 0.0061602014     1    10     4     4
 -0.0099602820     1    10     4     6
 0.0106655771     1    10     4     9
 0.0007135250     1    10     4    13
 -0.0093164994     1    10     5     5
 -0.0099671907     1    10     5    11
 0.0848437353     1    10     6     1
 0.0101994381     1    10     6     2
 0.0023221521     1    10     6     4
 -0.0051271427     1    10     6     6
 0.0042670692     1    10     6     9
 0.0015406478     1    10     6    13
 0.0010256573     1    10     7     3
 -0.0018555382     1    10     7     7
 -0.0003125524     1    10     7     8
 -0.0027494321     1    10     7    12
 0.0032492649     1    10     8     3
 0.0002872545     1    10     8     7
 -0.0024082221     1    10     8     8
 0.0032202640     1    10     8    12
 -0.1223798598     1    10     9     1
 -0.0158270869     1    10     9     2
 0.0002236010     1    10     9     4
 0.0075549185     1    10     9     6
 -0.0116241789     1    10     9     9
 -0.0037193548     1    10     9    13
 -0.7946275851     1    10    10     1
 -0.0266620146     1    10    10     2
 -0.0045758273     1    10    10     4
 0.0116667374     1    10    10     6
 -0.0090821490     1    10    10     9
 -0.0109281068     1    10    10    13
 -0.0078220597     1    10    11     5
 -0.0093928504     1    10    11    11
 0.0078639990     1    10    12     3
 -0.0037472127     1    10    12     7
 0.0029266054     1    10    12     8
 -0.0058584965     1    10    12    12
 0.0480892259     1    10    13     1
 0.0045344722     1    10    13     2
 -0.0091066113     1    10    13     4
 -0.0033904189     1    10    13     6
 0.0031229809     1    10    13     9
 -0.0013292703     1    10    13    13
 -0.0156377113     1    11     2     5
 -0.0042570738     1    11     4     5
 -0.4560700471     1    11     5     1
 -0.0479854906     1    11     5     2
 -0.0152643119     1    11     5     4
 0.0126904212     1    11     5     6
 -0.0152188977     1    11     5     9
 0.0099671907     1    11     5    10
 -0.0147778546     1    11     5    13
 -0.0002629799     1    11     6     5
 -0.0047255867     1    11     9     5
 0.0024892940     1    11    10     5
 -0.9483930373     1    11    11     1
 -0.0405042659     1    11    11     2
 -0.0135424790     1    11    11     4
 0.0158265036     1    11    11     6
 -0.0134120859     1    11    11     9
 0.0093928504     1    11    11    10
 -0.0175109847     1    11    11    13
 -0.0005707290     1    11    13     5
 0.0123978428     1    12     2     3
 -0.0032444703     1    12     2     7
 0.0013035395     1    12     2     8
 0.3045151661     1    12     3     1
 0.0333398904     1    12     3     2
 0.0095253164     1    12     3     4
 -0.0065345184     1    12     3     6
 0.0007153298     1    12     3     9
 -0.0037063020     1    12     3    10
 0.0131106928     1    12     3    13
 0.0022110731     1    12     4     3
 -0.0031046356     1    12     4     7
 0.0077912819     1    12     4     8
 0.0017535736     1    12     6     3
 0.0016545298     1    12     6     7
 0.0013221644     1    12     6     8
 -0.2065804880     1    12     7     1
 -0.0153297989     1    12     7     2
 -0.0067586765     1    12     7     4
 0.0063820677     1    12     7     6
 -0.0030800623     1    12     7     9
 0.0027494321     1    12     7    10
 -0.0062907880     1    12     7    13
 0.1089760654     1    12     8     1
 0.0127470449     1    12     8     2
 0.0108246215     1    12     8     4
 -0.0034118627     1    12     8     6
 0.0061150531     1    12     8     9
 -0.0032202640     1    12     8    10
 0.0074618287     1    12     8    13
 -0.0053513718     1    12     9     3
 0.0004965641     1    12     9     7
 0.0023887586     1    12     9     8
 0.0041499397     1    12    10     3
 -0.0009873925     1    12    10     7
 -0.0003175680     1    12    10     8
 -0.7471673059     1    12    12     1
 -0.0253747937     1    12    12     2
 -0.0056196199     1    12    12     4
 0.0103561261     1    12    12     6
 -0.0085054015     1    12    12     9
 0.0058584965     1    12    12    10
 -0.0105397540     1    12    12    13
 0.0037125266     1    12    13     3
 -0.0011444131     1    12    13     7
 0.0025796504     1    12    13     8
 -0.1254760991     1    13     2     1
 0.0007753135     1    13     2     2
 -0.0022051447     1    13     2     4
 -0.0006360477     1    13     2     6
 0.0008349411     1    13     2     9
 0.0007541634     1    13     2    10
 0.0115481411     1    13     3     3
 -0.0060343359     1    13     3     7
 0.0051495883     1    13     3     8
 -0.0131106928     1    13     3    12
 -0.0815826989     1    13     4     1
 -0.0049843702     1    13     4     2
 -0.0004310656     1    13     4     4
 0.0015207559     1    13     4     6
 -0.0018298115     1    13     4     9
 -0.0007135250     1    13     4    10
 0.0124041936     1    13     5     5
 0.0147778546     1    13     5    11
 0.0589176025     1    13     6     1
 -0.0013349068     1    13     6     2
 0.0011181479     1    13     6     4
 0.0011327915     1    13     6     6
 -0.0013460193     1    13     6     9
 -0.0015406478     1    13     6    10
 -0.0051963148     1    13     7     3
 0.0030378481     1    13     7     7
 -0.0026497398     1    13     7     8
 0.0062907880     1    13     7    12
 0.0057438506     1    13     8     3
 -0.0034169095     1    13     8     7
 0.0034452634     1    13     8     8
 -0.0074618287     1    13     8    12
 -0.0005544190     1    13     9     1
 0.0025901037     1    13     9     2
 -0.0035339804     1    13     9     4
 -0.0021357844     1    13     9     6
 0.0034437485     1    13     9     9
 0.0037193548     1    13     9    10
 0.0480892259     1    13    10     1
 0.0052676988     1    13    10     2
 -0.0096044126     1    13    10     4
 -0.0049317935     1    13    10     6
 0.0068410393     1    13    10     9
 0.0109281068     1    13    10    10
 0.0144035303     1    13    11     5
 0.0175109847     1    13    11    11
 -0.0093929584     1    13    12     3
 0.0051257475     1    13    12     7
 -0.0048703628     1    13    12     8
 0.0105397540     1    13    12    12
 -0.5637784338     1    13    13     1
 -0.0012090683     1    13    13     2
 -0.0004459862     1    13    13     4
 0.0000345456     1    13    13     6
 0.0001893563     1    13    13     9
 0.0013292703     1    13    13    10
 -0.9831516665     2     1     1     2
 -0.0724251973     2     1     1     4
 0.1818542930     2     1     1     6
 -0.1469610115     2     1     1     9
 0.0170078570     2     1     1    10
 -0.1254760991     2     1     1    13
 0.0297996156     2     1     3     3
 -0.0131844569     2     1     3     7
 0.0116481889     2     1     3     8
 -0.0205444074     2     1     3    12
 -0.0068373836     2     1     4     2
 0.0355377085     2     1     4     4
 0.0096408783     2     1     4     6
 -0.0143139437     2     1     4     9
 -0.0239937713     2     1     4    10
 0.0027529609     2     1     4    13
 0.0412896819     2     1     5     5
 0.0318053891     2     1     5    11
 -0.0026034760     2     1     6     2
 0.0096058005     2     1     6     4
 0.0025945174     2     1     6     6
 -0.0039667200     2     1     6     9
 -0.0061593944     2     1     6    10
 0.0006574726     2     1     6    13
 -0.0165646730     2     1     7     3
 0.0073757629     2     1     7     7
 -0.0064890804     2     1     7     8
 0.0119098749     2     1     7    12
 0.0165067542     2     1     8     3
 -0.0074473316     2     1     8     7
 0.0061739358     2     1     8     8
 -0.0113351829     2     1     8    12
 0.0044872581     2     1     9     2
 -0.0169326998     2     1     9     4
 -0.0049134032     2     1     9     6
 0.0067858499     2     1     9     9
 0.0119775735     2     1     9    10
 -0.0017458668     2     1     9    13
 0.0089807873     2     1    10     2
 -0.0359510861     2     1    10     4
 -0.0101994381     2     1    10     6
 0.0158270869     2     1    10     9
 0.0266620146     2     1    10    10
 -0.0045344722     2     1    10    13
 0.0479854906     2     1    11     5
 0.0405042659     2     1    11    11
 -0.0333398904     2     1    12     3
 0.0153297989     2     1    12     7
 -0.0127470449     2     1    12     8
 0.0253747937     2     1    12    12
 -0.0007753135     2     1    13     2
 0.0049843702     2     1    13     4
 0.0013349068     2     1    13     6
 -0.0025901037     2     1    13     9
 -0.0052676988     2     1    13    10
 0.0012090683     2     1    13    13
 0.9831516665     2     2     1     1
 0.0068373836     2     2     1     4
 0.0026034760     2     2     1     6
 -0.0044872581     2     2     1     9
 -0.0089807873     2     2     1    10
 0.0007753135     2     2     1    13
 0.5246970333     2     2     3     3
 -0.0865111893     2     2     3     7
 0.0313031984     2     2     3     8
 -0.1010269377     2     2     3    12
 0.0068373836     2     2     4     1
 0.5529744719     2     2     4     4
 0.0429936592     2     2     4     6
 -0.0513616543     2     2     4     9
 -0.1165139788     2     2     4    10
 0.0344341990     2     2     4    13
 0.5842312391     2     2     5     5
 0.1481288030     2     2     5    11
 0.0026034760     2     2     6     1
 0.0429936592     2     2     6     4
 0.3311549230     2     2     6     6
 -0.0786040238     2     2     6     9
 -0.0404403669     2     2     6    10
 -0.0216719109     2     2     6    13
 -0.0865111893     2     2     7     3
 0.3276128540     2     2     7     7
 -0.0854730190     2     2     7     8
 0.0935336103     2     2     7    12
 0.0313031984     2     2     8     3
 -0.0854730190     2     2     8     7
 0.4729208269     2     2     8     8
 -0.0223784346     2     2     8    12
 -0.0044872581     2     2     9     1
 -0.0513616543     2     2     9     4
 -0.0786040238     2     2     9     6
 0.4704492244     2     2     9     9
 0.0243524977     2     2     9    10
 -0.0107247534     2     2     9    13
 -0.0089807873     2     2    10     1
 -0.1165139788     2     2    10     4
 -0.0404403669     2     2    10     6
 0.0243524977     2     2    10     9
 0.5369808490     2     2    10    10
 0.0107145319     2     2    10    13
 0.1481288030     2     2    11     5
 0.5814123141     2     2    11    11
 -0.1010269377     2     2    12     3
 0.0935336103     2     2    12     7
 -0.0223784346     2     2    12     8
 0.5092138241     2     2    12    12
 0.0007753135     2     2    13     1
 0.0344341990     2     2    13     4
 -0.0216719109     2     2    13     6
 -0.0107247534     2     2    13     9
 0.0107145319     2     2    13    10
 0.4806562313     2     2    13    13
 0.0031578096     2     3     1     7
 -0.0046652085     2     3     1     8
 0.0123978428     2     3     1    12
 -0.0297996156     2     3     3     1
 -0.5246970333     2     3     3     2
 -0.0027922801     2     3     3     4
 0.0780239644     2     3     3     6
 -0.0800330238     2     3     3     9
 0.0204049215     2     3     3    10
 -0.0087192150     2     3     3    13
 -0.0150430802     2     3     4     7
 0.0391125053     2     3     4     8
 0.0081530233     2     3     4    12
 0.0401456694     2     3     6     7
 0.0001365055     2     3     6     8
 0.0255608089     2     3     6    12
 0.0165646730     2     3     7     1
 0.0865111893     2     3     7     2
 -0.0003889306     2     3     7     4
 0.0185012484     2     3     7     6
 0.0079653571     2     3     7     9
 -0.0035887256     2     3     7    10
 0.0099679271     2     3     7    13
 -0.0165067542     2     3     8     1
 -0.0313031984     2     3     8     2
 0.0039315008     2     3     8     4
 0.0056467077     2     3     8     6
 0.0510730776     2     3     8     9
 0.0068910017     2     3     8    10
 0.0144831205     2     3     8    13
 -0.0148187936     2     3     9     7
 0.0538549721     2     3     9     8
 -0.0331390473     2     3     9    12
 0.0003870118     2     3    10     7
 0.0051098941     2     3    10     8
 0.0218046492     2     3    10    12
 0.0333398904     2     3    12     1
 0.1010269377     2     3    12     2
 0.0067987353     2     3    12     4
 -0.0015211906     2     3    12     6
 -0.0041895105     2     3    12     9
 0.0185825062     2     3    12    10
 0.0105668818     2     3    12    13
 0.0012734251     2     3    13     7
 0.0273998643     2     3    13     8
 -0.0016235710     2     3    13    12
 0.0724251973     2     4     1     1
 -0.0068373836     2     4     1     2
 0.0001634024     2     4     1     6