&FCI NORB= 14,NELEC= 10,MS2=0,
 ORBSYM=1,1,1,1,1,1,1,1,1,1,1,1,1,1
 ISYM=1,
&END
 0.9952258822     1     1     2     2
 -0.0410588145     1     1     2     3
 0.0711122864     1     1     2     4
 -0.1196595797     1     1     2     6
 0.0879562312     1     1     2     7
 0.0350639114     1     1     2     8
 0.0763331213     1     1     2     9
 0.0332420890     1     1     2    10
 -0.0649522247     1     1     2    12
 -0.0926101074     1     1     2    13
 -0.0410588145     1     1     3     2
 0.8703788853     1     1     3     3
 -0.0825484315     1     1     3     4
 0.0872932783     1     1     3     6
 0.1508778177     1     1     3     7
 -0.0448621214     1     1     3     8
 0.0036136098     1     1     3     9
 0.2247336725     1     1     3    10
 0.0417514047     1     1     3    12
 -0.1389387315     1     1     3    13
 0.0711122864     1     1     4     2
 -0.0825484315     1     1     4     3
 0.8060135996     1     1     4     4
 0.2387843358     1     1     4     6
 0.0570538865     1     1     4     7
 -0.1012307725     1     1     4     8
 0.0508146197     1     1     4     9
 -0.1739897936     1     1     4    10
 0.0627413418     1     1     4    12
 -0.1661659808     1     1     4    13
 1.0066348085     1     1     5     5
 0.2566777508     1     1     5    11
 0.2162520975     1     1     5    14
 -0.1196595797     1     1     6     2
 0.0872932783     1     1     6     3
 0.2387843358     1     1     6     4
 0.4511531664     1     1     6     6
 0.0343582971     1     1     6     7
 -0.1414454989     1     1     6     8
 -0.0044320185     1     1     6     9
 -0.0531997862     1     1     6    10
 0.0830328934     1     1     6    12
 -0.0991923569     1     1     6    13
 0.0879562312     1     1     7     2
 0.1508778177     1     1     7     3
 0.0570538865     1     1     7     4
 0.0343582971     1     1     7     6
 0.3124508093     1     1     7     7
 -0.0502149348     1     1     7     8
 0.0480094489     1     1     7     9
 0.0891069775     1     1     7    10
 0.0047015703     1     1     7    12
 -0.1291884709     1     1     7    13
 0.0350639114     1     1     8     2
 -0.0448621214     1     1     8     3
 -0.1012307725     1     1     8     4
 -0.1414454989     1     1     8     6
 -0.0502149348     1     1     8     7
 0.3137312174     1     1     8     8
 -0.0120122724     1     1     8     9
 0.0150204075     1     1     8    10
 -0.0184100532     1     1     8    12
 0.0431176428     1     1     8    13
 0.0763331213     1     1     9     2
 0.0036136098     1     1     9     3
 0.0508146197     1     1     9     4
 -0.0044320185     1     1     9     6
 0.0480094489     1     1     9     7
 -0.0120122724     1     1     9     8
 0.3599813675     1     1     9     9
 0.0189104321     1     1     9    10
 -0.0062734094     1     1     9    12
 -0.0482797768     1     1     9    13
 0.0332420890     1     1    10     2
 0.2247336725     1     1    10     3
 -0.1739897936     1     1    10     4
 -0.0531997862     1     1    10     6
 0.0891069775     1     1    10     7
 0.0150204075     1     1    10     8
 0.0189104321     1     1    10     9
 0.4916212065     1     1    10    10
 -0.0242585112     1     1    10    12
 -0.0149826470     1     1    10    13
 0.2566777508     1     1    11     5
 0.4311620843     1     1    11    11
 0.1067264742     1     1    11    14
 -0.0649522247     1     1    12     2
 0.0417514047     1     1    12     3
 0.0627413418     1     1    12     4
 0.0830328934     1     1    12     6
 0.0047015703     1     1    12     7
 -0.0184100532     1     1    12     8
 -0.0062734094     1     1    12     9
 -0.0242585112     1     1    12    10
 0.3591074886     1     1    12    12
 -0.0357688528     1     1    12    13
 -0.0926101074     1     1    13     2
 -0.1389387315     1     1    13     3
 -0.1661659808     1     1    13     4
 -0.0991923569     1     1    13     6
 -0.1291884709     1     1    13     7
 0.0431176428     1     1    13     8
 -0.0482797768     1     1    13     9
 -0.0149826470     1     1    13    10
 -0.0357688528     1     1    13    12
 0.4726248328     1     1    13    13
 0.2162520975     1     1    14     5
 0.1067264742     1     1    14    11
 0.4272374341     1     1    14    14
 -0.9952258822     1     2     2     1
 -0.0054724331     1     2     2     3
 0.0019511777     1     2     2     4
 0.0002199545     1     2     2     6
 -0.0021936216     1     2     2     7
 0.0001660968     1     2     2     8
 -0.0005577804     1     2     2     9
 -0.0044986884     1     2     2    10
 0.0000925457     1     2     2    12
 0.0023260848     1     2     2    13
 0.0410588145     1     2     3     1
 -0.0317509249     1     2     3     3
 0.0050496645     1     2     3     4
 -0.0045059322     1     2     3     6
 -0.0111425494     1     2     3     7
 0.0035193507     1     2     3     8
 -0.0026016018     1     2     3     9
 -0.0191008056     1     2     3    10
 -0.0022710412     1     2     3    12
 0.0128681204     1     2     3    13
 -0.0711122864     1     2     4     1
 0.0044416080     1     2     4     3
 -0.0282515292     1     2     4     4
 -0.0158468703     1     2     4     6
 -0.0027416393     1     2     4     7
 0.0083050539     1     2     4     8
 -0.0027932725     1     2     4     9
 0.0132895384     1     2     4    10
 -0.0065381419     1     2     4    12
 0.0121890715     1     2     4    13
 -0.0428622505     1     2     5     5
 -0.0201277761     1     2     5    11
 -0.0180939625     1     2     5    14
 0.1196595797     1     2     6     1
 -0.0032501673     1     2     6     3
 -0.0149633695     1     2     6     4
 -0.0100003761     1     2     6     6
 -0.0036604062     1     2     6     7
 0.0054750144     1     2     6     8
 -0.0018690579     1     2     6     9
 0.0039705983     1     2     6    10
 -0.0041216453     1     2     6    12
 0.0092769823     1     2     6    13
 -0.0879562312     1     2     7     1
 -0.0101635898     1     2     7     3
 -0.0021005556     1     2     7     4
 -0.0038185950     1     2     7     6
 -0.0038509740     1     2     7     7
 0.0023583532     1     2     7     8
 -0.0011325850     1     2     7     9
 -0.0043975442     1     2     7    10
 -0.0015970230     1     2     7    12
 0.0059569832     1     2     7    13
 -0.0350639114     1     2     8     1
 0.0026516483     1     2     8     3
 0.0074263758     1     2     8     4
 0.0052487204     1     2     8     6
 0.0021759496     1     2     8     7
 -0.0030329989     1     2     8     8
 0.0011540550     1     2     8     9
 -0.0015810577     1     2     8    10
 0.0021783431     1     2     8    12
 -0.0051418680     1     2     8    13
 -0.0763331213     1     2     9     1
 -0.0022853151     1     2     9     3
 -0.0020946655     1     2     9     4
 -0.0016166876     1     2     9     6
 -0.0010465594     1     2     9     7
 0.0010651438     1     2     9     8
 -0.0004771580     1     2     9     9
 0.0000702492     1     2     9    10
 -0.0006016642     1     2     9    12
 0.0017490056     1     2     9    13
 -0.0332420890     1     2    10     1
 -0.0155123940     1     2    10     3
 0.0114496964     1     2    10     4
 0.0029812836     1     2    10     6
 -0.0037062604     1     2    10     7
 -0.0012249522     1     2    10     8
 0.0002692212     1     2    10     9
 -0.0124742186     1     2    10    10
 0.0007374955     1     2    10    12
 0.0014519500     1     2    10    13
 -0.0167637382     1     2    11     5
 -0.0081039431     1     2    11    11
 -0.0069740662     1     2    11    14
 0.0649522247     1     2    12     1
 -0.0014855903     1     2    12     3
 -0.0051487925     1     2    12     4
 -0.0034348073     1     2    12     6
 -0.0012808641     1     2    12     7
 0.0018902553     1     2    12     8
 -0.0005726768     1     2    12     9
 0.0008288576     1     2    12    10
 -0.0014071507     1     2    12    12
 0.0031546858     1     2    12    13
 0.0926101074     1     2    13     1
 0.0105591078     1     2    13     3
 0.0093725924     1     2    13     4
 0.0082883715     1     2    13     6
 0.0053487275     1     2    13     7
 -0.0048054747     1     2    13     8
 0.0017293356     1     2    13     9
 0.0018571922     1     2    13    10
 0.0034020639     1     2    13    12
 -0.0098473039     1     2    13    13
 -0.0144578047     1     2    14     5
 -0.0066526825     1     2    14    11
 -0.0057293528     1     2    14    14
 0.0410588145     1     3     2     1
 0.0054724331     1     3     2     2
 0.0006080565     1     3     2     4
 -0.0012557649     1     3     2     6
 -0.0009789596     1     3     2     7
 0.0008677024     1     3     2     8
 -0.0003162867     1     3     2     9
 -0.0035884116     1     3     2    10
 -0.0007854509     1     3     2    12
 0.0023090126     1     3     2    13
 -0.8703788853     1     3     3     1
 0.0317509249     1     3     3     2
 0.0044539433     1     3     3     4
 -0.0038104196     1     3     3     6
 0.0039421913     1     3     3     7
 0.0011132714     1     3     3     8
 0.0002628964     1     3     3     9
 0.0003952427     1     3     3    10
 -0.0022010891     1     3     3    12
 -0.0055342730     1     3     3    13
 0.0825484315     1     3     4     1
 -0.0044416080     1     3     4     2
 0.0055976333     1     3     4     4
 0.0058000378     1     3     4     6
 0.0009780049     1     3     4     7
 -0.0040368118     1     3     4     8
 0.0000569119     1     3     4     9
 -0.0021498913     1     3     4    10
 -0.0002026991     1     3     4    12
 -0.0026239033     1     3     4    13
 0.0098699563     1     3     5     5
 0.0052878754     1     3     5    11
 0.0017131070     1     3     5    14
 -0.0872932783     1     3     6     1
 0.0032501673     1     3     6     2
 0.0041139467     1     3     6     4
 0.0009149383     1     3     6     6
 0.0001534211     1     3     6     7
 -0.0010480940     1     3     6     8
 0.0008265975     1     3     6     9
 -0.0015937531     1     3     6    10
 -0.0005111852     1     3     6    12
 -0.0013181422     1     3     6    13
 -0.1508778177     1     3     7     1
 0.0101635898     1     3     7     2
 0.0024076086     1     3     7     4
 -0.0019745151     1     3     7     6
 0.0036376533     1     3     7     7
 0.0003071922     1     3     7     8
 0.0013139411     1     3     7     9
 0.0018961068     1     3     7    10
 -0.0006053595     1     3     7    12
 -0.0031302716     1     3     7    13
 0.0448621214     1     3     8     1
 -0.0026516483     1     3     8     2
 -0.0022413315     1     3     8     4
 -0.0000497426     1     3     8     6
 -0.0004616263     1     3     8     7
 -0.0006964581     1     3     8     8
 0.0001712132     1     3     8     9
 -0.0003096182     1     3     8    10
 0.0006721785     1     3     8    12
 0.0006628203     1     3     8    13
 -0.0036136098     1     3     9     1
 0.0022853151     1     3     9     2
 0.0004125001     1     3     9     4
 0.0005922549     1     3     9     6
 0.0016149152     1     3     9     7
 0.0001129767     1     3     9     8
 0.0005727173     1     3     9     9
 0.0038749144     1     3     9    10
 0.0002688562     1     3     9    12
 -0.0035939720     1     3     9    13
 -0.2247336725     1     3    10     1
 0.0155123940     1     3    10     2
 0.0003397191     1     3    10     4
 -0.0048344668     1     3    10     6
 0.0038237987     1     3    10     7
 0.0013459044     1     3    10     8
 0.0039715205     1     3    10     9
 0.0039369997     1     3    10    10
 -0.0033669408     1     3    10    12
 -0.0034196579     1     3    10    13
 0.0035779990     1     3    11     5
 0.0004395521     1     3    11    11
 0.0015765164     1     3    11    14
 -0.0417514047     1     3    12     1
 0.0014855903     1     3    12     2
 0.0012310948     1     3    12     4
 0.0008213248     1     3    12     6
 0.0008798225     1     3    12     7
 -0.0004790358     1     3    12     8
 0.0006508706     1     3    12     9
 -0.0024831076     1     3    12    10
 0.0005369677     1     3    12    12
 -0.0019338883     1     3    12    13
 0.1389387315     1     3    13     1
 -0.0105591078     1     3    13     2
 -0.0042803756     1     3    13     4
 0.0008381009     1     3    13     6
 -0.0030217183     1     3    13     7
 0.0002949556     1     3    13     8
 -0.0031692185     1     3    13     9
 -0.0007571329     1     3    13    10
 0.0003809206     1     3    13    12
 0.0049919254     1     3    13    13
 0.0036793946     1     3    14     5
 0.0032065659     1     3    14    11
 0.0038286337     1     3    14    14
 -0.0711122864     1     4     2     1
 -0.0019511777     1     4     2     2
 -0.0006080565     1     4     2     3
 -0.0008835008     1     4     2     6
 -0.0006410837     1     4     2     7
 0.0008786781     1     4     2     8
 -0.0006986070     1     4     2     9
 0.0018398420     1     4     2    10
 -0.0013893494     1     4     2    12
 0.0028164791     1     4     2    13
 0.0825484315     1     4     3     1
 -0.0050496645     1     4     3     2
 -0.0044539433     1     4     3     3
 0.0016860911     1     4     3     6
 -0.0014296037     1     4     3     7
 -0.0017954803     1     4     3     8
 -0.0003555882     1     4     3     9
 -0.0024896104     1     4     3    10
 -0.0014337939     1     4     3    12
 0.0016564723     1     4     3    13
 -0.8060135996     1     4     4     1
 0.0282515292     1     4     4     2
 -0.0055976333     1     4     4     3
 -0.0055108182     1     4     4     6
 0.0029585163     1     4     4     7
 0.0011247361     1     4     4     8
 0.0048864455     1     4     4     9
 0.0024220550     1     4     4    10
 -0.0020072329     1     4     4    12
 -0.0014045247     1     4     4    13
 -0.0076211781     1     4     5     5
 -0.0024569747     1     4     5    11
 -0.0037012019     1     4     5    14
 -0.2387843358     1     4     6     1
 0.0149633695     1     4     6     2
 -0.0041139467     1     4     6     3
 -0.0065611808     1     4     6     6
 0.0003707044     1     4     6     7
 0.0025296013     1     4     6     8
 0.0020223597     1     4     6     9
 0.0015272039     1     4     6    10
 -0.0027639767     1     4     6    12
 0.0012395184     1     4     6    13
 -0.0570538865     1     4     7     1
 0.0021005556     1     4     7     2
 -0.0024076086     1     4     7     3
 -0.0013988823     1     4     7     6
 -0.0008832073     1     4     7     7
 0.0006935591     1     4     7     8
 0.0003820669     1     4     7     9
 -0.0015337294     1     4     7    10
 -0.0005542304     1     4     7    12
 0.0005706305     1     4     7    13
 0.1012307725     1     4     8     1
 -0.0074263758     1     4     8     2
 0.0022413315     1     4     8     3
 0.0037775713     1     4     8     6
 0.0003715029     1     4     8     7
 -0.0033144293     1     4     8     8
 -0.0013861661     1     4     8     9
 0.0001011718     1     4     8    10
 0.0020509117     1     4     8    12
 -0.0013319115     1     4     8    13
 -0.0508146197     1     4     9     1
 0.0020946655     1     4     9     2
 -0.0004125001     1     4     9     3
 -0.0012325780     1     4     9     6
 0.0001618177     1     4     9     7
 0.0000711901     1     4     9     8
 -0.0008409391     1     4     9     9
 0.0003635652     1     4     9    10
 -0.0019123488     1     4     9    12
 0.0007053090     1     4     9    13
 0.1739897936     1     4    10     1
 -0.0114496964     1     4    10     2
 -0.0003397191     1     4    10     3
 0.0035209173     1     4    10     6
 -0.0030311816     1     4    10     7
 -0.0007385079     1     4    10     8
 -0.0021113971     1     4    10     9
 -0.0017911039     1     4    10    10
 0.0021102883     1     4    10    12
 0.0037258996     1     4    10    13
 -0.0037210460     1     4    11     5
 -0.0038370426     1     4    11    11
 -0.0009657696     1     4    11    14
 -0.0627413418     1     4    12     1
 0.0051487925     1     4    12     2
 -0.0012310948     1     4    12     3
 -0.0023312675     1     4    12     6
 0.0010961567     1     4    12     7
 0.0012134581     1     4    12     8
 -0.0004095043     1     4    12     9
 0.0027465273     1     4    12    10
 -0.0017598408     1     4    12    12
 -0.0005824010     1     4    12    13
 0.1661659808     1     4    13     1
 -0.0093725924     1     4    13     2
 0.0042803756     1     4    13     3
 0.0037254498     1     4    13     6
 -0.0008562660     1     4    13     7
 -0.0012744011     1     4    13     8
 -0.0013863825     1     4    13     9
 0.0017894281     1     4    13    10
 0.0015698650     1     4    13    12
 0.0013479377     1     4    13    13
 -0.0024808396     1     4    14     5
 0.0001253436     1     4    14    11
 -0.0016635967     1     4    14    14
 -0.0033640379     1     5     2    11
 -0.0036361578     1     5     2    14
 0.0017098764     1     5     3    11
 -0.0019662876     1     5     3    14
 0.0012640713     1     5     4    11
 -0.0012203623     1     5     4    14
 -1.0066348085     1     5     5     1
 0.0428622505     1     5     5     2
 -0.0098699563     1     5     5     3
 0.0076211781     1     5     5     4
 -0.0083065328     1     5     5     6
 0.0039983290     1     5     5     7
 0.0038102753     1     5     5     8
 0.0074219034     1     5     5     9
 -0.0003960703     1     5     5    10
 -0.0062922078     1     5     5    12
 -0.0066164730     1     5     5    13
 -0.0005169220     1     5     6    11
 -0.0007654794     1     5     6    14
 0.0008876674     1     5     7    11
 0.0009936948     1     5     7    14
 -0.0010020525     1     5     8    11
 -0.0003776126     1     5     8    14
 -0.0007364252     1     5     9    11
 -0.0009560583     1     5     9    14
 -0.0003063308     1     5    10    11
 -0.0004215975     1     5    10    14
 -0.2566777508     1     5    11     1
 0.0167637382     1     5    11     2
 -0.0035779990     1     5    11     3
 0.0037210460     1     5    11     4
 -0.0053045022     1     5    11     6
 0.0023781922     1     5    11     7
 0.0012752107     1     5    11     8
 0.0026097934     1     5    11     9
 -0.0003792965     1     5    11    10
 -0.0027486116     1     5    11    12
 -0.0019959305     1     5    11    13
 0.0005841736     1     5    12    11
 0.0005059207     1     5    12    14
 0.0002612359     1     5    13    11
 0.0001363225     1     5    13    14
 -0.2162520975     1     5    14     1
 0.0144578047     1     5    14     2
 -0.0036793946     1     5    14     3
 0.0024808396     1     5    14     4
 -0.0034422901     1     5    14     6
 0.0036908845     1     5    14     7
 0.0006942311     1     5    14     8
 0.0024294632     1     5    14     9
 0.0005220864     1     5    14    10
 -0.0017776360     1     5    14    12
 -0.0041041000     1     5    14    13
 0.1196595797     1     6     2     1
 -0.0002199545     1     6     2     2
 0.0012557649     1     6     2     3
 0.0008835008     1     6     2     4
 0.0001581888     1     6     2     7
 0.0002262940     1     6     2     8
 -0.0002523703     1     6     2     9
 0.0009893147     1     6     2    10
 -0.0006868380     1     6     2    12
 0.0009886108     1     6     2    13
 -0.0872932783     1     6     3     1
 0.0045059322     1     6     3     2
 0.0038104196     1     6     3     3
 -0.0016860911     1     6     3     4
 0.0021279362     1     6     3     7
 -0.0009983514     1     6     3     8
 0.0002343426     1     6     3     9
 0.0032407137     1     6     3    10
 -0.0013325100     1     6     3    12
 -0.0021562431     1     6     3    13
 -0.2387843358     1     6     4     1
 0.0158468703     1     6     4     2
 -0.0058000378     1     6     4     3
 0.0055108182     1     6     4     4
 0.0017695867     1     6     4     7
 -0.0012479700     1     6     4     8
 0.0032549377     1     6     4     9
 -0.0019937134     1     6     4    10
 -0.0004327092     1     6     4    12
 -0.0024859314     1     6     4    13
 0.0083065328     1     6     5     5
 0.0047875802     1     6     5    11
 0.0026768107     1     6     5    14
 -0.4511531664     1     6     6     1
 0.0100003761     1     6     6     2
 -0.0009149383     1     6     6     3
 0.0065611808     1     6     6     4
 0.0017682763     1     6     6     7
 -0.0007752330     1     6     6     8
 0.0021680116     1     6     6     9
 -0.0007409222     1     6     6    10
 -0.0002763422     1     6     6    12
 -0.0031802860     1     6     6    13
 -0.0343582971     1     6     7     1
 0.0038185950     1     6     7     2
 0.0019745151     1     6     7     3
 0.0013988823     1     6     7     4
 0.0016827903     1     6     7     7
 -0.0003165784     1     6     7     8
 0.0009370617     1     6     7     9
 0.0009908644     1     6     7    10
 0.0000707262     1     6     7    12
 -0.0024665854     1     6     7    13
 0.1414454989     1     6     8     1
 -0.0052487204     1     6     8     2
 0.0000497426     1     6     8     3
 -0.0037775713     1     6     8     4
 -0.0008941036     1     6     8     7
 -0.0008682663     1     6     8     8
 -0.0012898279     1     6     8     9
 0.0005655827     1     6     8    10
 0.0004617874     1     6     8    12
 0.0016578063     1     6     8    13
 0.0044320185     1     6     9     1
 0.0016166876     1     6     9     2
 -0.0005922549     1     6     9     3
 0.0012325780     1     6     9     4
 0.0004734076     1     6     9     7
 -0.0002608559     1     6     9     8
 -0.0003136328     1     6     9     9
 0.0003883204     1     6     9    10
 -0.0008653547     1     6     9    12
 -0.0007140349     1     6     9    13
 0.0531997862     1     6    10     1
 -0.0029812836     1     6    10     2
 0.0048344668     1     6    10     3
 -0.0035209173     1     6    10     4
 0.0003526284     1     6    10     7
 0.0002555204     1     6    10     8
 -0.0003608274     1     6    10     9
 0.0038814915     1     6    10    10
 0.0002093807     1     6    10    12
 0.0008510422     1     6    10    13
 0.0053045022     1     6    11     5
 0.0009719370     1     6    11    11
 0.0025493162     1     6    11    14
 -0.0830328934     1     6    12     1
 0.0034348073     1     6    12     2
 -0.0008213248     1     6    12     3
 0.0023312675     1     6    12     4
 0.0011431101     1     6    12     7
 -0.0000384981     1     6    12     8
 0.0001046428     1     6    12     9
 0.0003271017     1     6    12    10
 -0.0004761505     1     6    12    12
 -0.0017655063     1     6    12    13
 0.0991923569     1     6    13     1
 -0.0082883715     1     6    13     2
 -0.0008381009     1     6    13     3
 -0.0037254498     1     6    13     4
 -0.0029336910     1     6    13     7
 0.0007404445     1     6    13     8
 -0.0021431520     1     6    13     9
 0.0001363644     1     6    13    10
 0.0000359843     1     6    13    12
 0.0050169649     1     6    13    13
 0.0034422901     1     6    14     5
 0.0027122798     1     6    14    11
 0.0015072902     1     6    14    14
 -0.0879562312     1     7     2     1
 0.0021936216     1     7     2     2
 0.0009789596     1     7     2     3
 0.0006410837     1     7     2     4
 -0.0001581888     1     7     2     6
 0.0001824036     1     7     2     8
 -0.0000860256     1     7     2     9
 -0.0006912838     1     7     2    10
 -0.0003161589     1     7     2    12
 0.0006082557     1     7     2    13
 -0.1508778177     1     7     3     1
 0.0111425494     1     7     3     2
 -0.0039421913     1     7     3     3
 0.0014296037     1     7     3     4
 -0.0021279362     1     7     3     6
 0.0007688185     1     7     3     8
 -0.0003009741     1     7     3     9
 -0.0019276919     1     7     3    10
 -0.0014851820     1     7     3    12
 -0.0001085533     1     7     3    13
 -0.0570538865     1     7     4     1
 0.0027416393     1     7     4     2
 -0.0009780049     1     7     4     3
 -0.0029585163     1     7     4     4
 -0.0017695867     1     7     4     6
 0.0003220562     1     7     4     8
 0.0002202492     1     7     4     9
 0.0014974522     1     7     4    10
 -0.0016503871     1     7     4    12
 0.0014268965     1     7     4    13
 -0.0039983290     1     7     5     5
 -0.0014905248     1     7     5    11
 -0.0026971897     1     7     5    14
 -0.0343582971     1     7     6     1
 0.0036604062     1     7     6     2
 -0.0001534211     1     7     6     3
 -0.0003707044     1     7     6     4
 -0.0017682763     1     7     6     6
 0.0005775252     1     7     6     8
 0.0004636541     1     7     6     9
 0.0006382360     1     7     6    10
 -0.0010723839     1     7     6    12
 0.0004671056     1     7     6    13
 -0.3124508093     1     7     7     1
 0.0038509740     1     7     7     2
 -0.0036376533     1     7     7     3
 0.0008832073     1     7     7     4
 -0.0016827903     1     7     7     6
 0.0007279070     1     7     7     8
 0.0002505806     1     7     7     9
 -0.0012369465     1     7     7    10
 -0.0006474896     1     7     7    12
 0.0005109640     1     7     7    13
 0.0502149348     1     7     8     1
 -0.0021759496     1     7     8     2
 0.0004616263     1     7     8     3
 -0.0003715029     1     7     8     4
 0.0008941036     1     7     8     6
 -0.0009561727     1     7     8     8
 -0.0000756893     1     7     8     9
 -0.0002382681     1     7     8    10
 0.0007155683     1     7     8    12
 -0.0002724764     1     7     8    13
 -0.0480094489     1     7     9     1
 0.0010465594     1     7     9     2
 -0.0016149152     1     7     9     3
 -0.0001618177     1     7     9     4
 -0.0004734076     1     7     9     6
 0.0003882564     1     7     9     8
 -0.0000858918     1     7     9     9
 0.0008393288     1     7     9    10
 -0.0004085315     1     7     9    12
 -0.0003499956     1     7     9    13
 -0.0891069775     1     7    10     1
 0.0037062604     1     7    10     2
 -0.0038237987     1     7    10     3
 0.0030311816     1     7    10     4
 -0.0003526284     1     7    10     6
 0.0000182154     1     7    10     8
 0.0011554845     1     7    10     9
 -0.0019329466     1     7    10    10
 -0.0006519517     1     7    10    12
 -0.0003408454     1     7    10    13
 -0.0023781922     1     7    11     5
 -0.0019162615     1     7    11    11
 -0.0008727680     1     7    11    14
 -0.0047015703     1     7    12     1
 0.0012808641     1     7    12     2
 -0.0008798225     1     7    12     3
 -0.0010961567     1     7    12     4
 -0.0011431101     1     7    12     6
 0.0006180085     1     7    12     8
 -0.0000377158     1     7    12     9
 -0.0003056721     1     7    12    10
 -0.0005009719     1     7    12    12
 0.0002893244     1     7    12    13
 0.1291884709     1     7    13     1
 -0.0053487275     1     7    13     2
 0.0030217183     1     7    13     3
 0.0008562660     1     7    13     4
 0.0029336910     1     7    13     6
 -0.0012691805     1     7    13     8
 -0.0009455119     1     7    13     9
 0.0002981160     1     7    13    10
 0.0012274668     1     7    13    12
 -0.0003067438     1     7    13    13
 -0.0036908845     1     7    14     5
 -0.0009590165     1     7    14    11
 -0.0007177977     1     7    14    14
 -0.0350639114     1     8     2     1
 -0.0001660968     1     8     2     2
 -0.0008677024     1     8     2     3
 -0.0008786781     1     8     2     4
 -0.0002262940     1     8     2     6
 -0.0001824036     1     8     2     7
 0.0000889112     1     8     2     9
 -0.0003561055     1     8     2    10
 0.0002880878     1     8     2    12
 -0.0003363933     1     8     2    13
 0.0448621214     1     8     3     1
 -0.0035193507     1     8     3     2
 -0.0011132714     1     8     3     3
 0.0017954803     1     8     3     4
 0.0009983514     1     8     3     6
 -0.0007688185     1     8     3     7
 0.0000582365     1     8     3     9
 -0.0016555226     1     8     3    10
 0.0011512143     1     8     3    12
 0.0003678647     1     8     3    13
 0.1012307725     1     8     4     1
 -0.0083050539     1     8     4     2
 0.0040368118     1     8     4     3
 -0.0011247361     1     8     4     4
 0.0012479700     1     8     4     6
 -0.0003220562     1     8     4     7
 -0.0014573562     1     8     4     9
 0.0008396797     1     8     4    10
 0.0008374536     1     8     4    12
 -0.0000575104     1     8     4    13
 -0.0038102753     1     8     5     5
 -0.0022772632     1     8     5    11
 -0.0010718437     1     8     5    14
 0.1414454989     1     8     6     1
 -0.0054750144     1     8     6     2
 0.0010480940     1     8     6     3
 -0.0025296013     1     8     6     4
 0.0007752330     1     8     6     6
 -0.0005775252     1     8     6     7
 -0.0010289720     1     8     6     9
 0.0003100623     1     8     6    10
 0.0005002855     1     8     6    12
 0.0009173618     1     8     6    13
 0.0502149348     1     8     7     1
 -0.0023583532     1     8     7     2
 -0.0003071922     1     8     7     3
 -0.0006935591     1     8     7     4
 0.0003165784     1     8     7     6
 -0.0007279070     1     8     7     7
 -0.0004639457     1     8     7     9
 -0.0002564835     1     8     7    10
 0.0000975598     1     8     7    12
 0.0009967041     1     8     7    13
 -0.3137312174     1     8     8     1
 0.0030329989     1     8     8     2
 0.0006964581     1     8     8     3
 0.0033144293     1     8     8     4
 0.0008682663     1     8     8     6
 0.0009561727     1     8     8     7
 0.0008774762     1     8     8     9
 -0.0003570707     1     8     8    10
 0.0000699446     1     8     8    12
 -0.0018410259     1     8     8    13
 0.0120122724     1     8     9     1
 -0.0010651438     1     8     9     2
 -0.0001129767     1     8     9     3
 -0.0000711901     1     8     9     4
 0.0002608559     1     8     9     6
 -0.0003882564     1     8     9     7