&FCI NORB= 11,NELEC= 10,MS2=0,
 ORBSYM=1,1,1,1,1,1,1,1,1,1,1
 ISYM=1,
&END
 0.9845246326     1     1     2     2
 -0.0000000005     1     1     2     3
 0.0667244524     1     1     2     4
 0.1268816161     1     1     2     6
 -0.0000000091     1     1     2     7
 -0.0000000820     1     1     2     8
 0.0723584966     1     1     2     9
 0.0767126115     1     1     2    10
 -0.0000000005     1     1     3     2
 0.8624368960     1     1     3     3
 -0.0000000129     1     1     3     4
 -0.0000000160     1     1     3     6
 -0.1456597573     1     1     3     7
 0.0800562113     1     1     3     8
 0.0000000433     1     1     3     9
 0.0000000236     1     1     3    10
 0.0667244524     1     1     4     2
 -0.0000000129     1     1     4     3
 0.9488620174     1     1     4     4
 -0.0676276234     1     1     4     6
 -0.0000000092     1     1     4     7
 0.0000000060     1     1     4     8
 0.0817928720     1     1     4     9
 -0.2128855153     1     1     4    10
 0.9979129499     1     1     5     5
 -0.2868814327     1     1     5    11
 0.1268816161     1     1     6     2
 -0.0000000160     1     1     6     3
 -0.0676276234     1     1     6     4
 0.3192453539     1     1     6     6
 0.0000000037     1     1     6     7
 -0.0000000766     1     1     6     8
 0.0412023975     1     1     6     9
 0.1076168606     1     1     6    10
 -0.0000000091     1     1     7     2
 -0.1456597573     1     1     7     3
 -0.0000000092     1     1     7     4
 0.0000000037     1     1     7     6
 0.2856931140     1     1     7     7
 -0.0696073109     1     1     7     8
 -0.0000000476     1     1     7     9
 -0.0000000161     1     1     7    10
 -0.0000000820     1     1     8     2
 0.0800562113     1     1     8     3
 0.0000000060     1     1     8     4
 -0.0000000766     1     1     8     6
 -0.0696073109     1     1     8     7
 0.3914292624     1     1     8     8
 0.0000000108     1     1     8     9
 -0.0000000288     1     1     8    10
 0.0723584966     1     1     9     2
 0.0000000433     1     1     9     3
 0.0817928720     1     1     9     4
 0.0412023975     1     1     9     6
 -0.0000000476     1     1     9     7
 0.0000000108     1     1     9     8
 0.3717961145     1     1     9     9
 0.0020467713     1     1     9    10
 0.0767126115     1     1    10     2
 0.0000000236     1     1    10     3
 -0.2128855153     1     1    10     4
 0.1076168606     1     1    10     6
 -0.0000000161     1     1    10     7
 -0.0000000288     1     1    10     8
 0.0020467713     1     1    10     9
 0.4691712786     1     1    10    10
 -0.2868814327     1     1    11     5
 0.5426727324     1     1    11    11
 -0.9845246326     1     2     2     1
 -0.0000000012     1     2     2     3
 0.0062660363     1     2     2     4
 -0.0011212254     1     2     2     6
 0.0000000003     1     2     2     7
 0.0012328057     1     2     2     9
 -0.0040028218     1     2     2    10
 0.0000000005     1     2     3     1
 -0.0308803907     1     2     3     3
 0.0000000009     1     2     3     4
 0.0000000011     1     2     3     6
 0.0109375042     1     2     3     7
 -0.0090296548     1     2     3     8
 -0.0000000056     1     2     3     9
 -0.0000000029     1     2     3    10
 -0.0667244524     1     2     4     1
 0.0000000008     1     2     4     3
 -0.0362083360     1     2     4     4
 0.0064357360     1     2     4     6
 0.0000000005     1     2     4     7
 -0.0000000024     1     2     4     8
 -0.0046463155     1     2     4     9
 0.0184803868     1     2     4    10
 -0.0411363681     1     2     5     5
 0.0242087181     1     2     5    11
 -0.1268816161     1     2     6     1
 0.0000000006     1     2     6     3
 0.0060486479     1     2     6     4
 -0.0014805958     1     2     6     6
 -0.0000000005     1     2     6     7
 0.0000000010     1     2     6     8
 0.0006980752     1     2     6     9
 -0.0039499636     1     2     6    10
 0.0000000091     1     2     7     1
 0.0079896284     1     2     7     3
 0.0000000003     1     2     7     4
 -0.0000000006     1     2     7     6
 -0.0035524571     1     2     7     7
 0.0029023190     1     2     7     8
 0.0000000019     1     2     7     9
 0.0000000005     1     2     7    10
 0.0000000820     1     2     8     1
 -0.0059470265     1     2     8     3
 -0.0000000026     1     2     8     4
 0.0000000011     1     2     8     6
 0.0025851705     1     2     8     7
 -0.0022758173     1     2     8     8
 -0.0000000018     1     2     8     9
 0.0000000011     1     2     8    10
 -0.0723584966     1     2     9     1
 -0.0000000037     1     2     9     3
 -0.0028453130     1     2     9     4
 0.0003093619     1     2     9     6
 0.0000000017     1     2     9     7
 -0.0000000016     1     2     9     8
 -0.0006596871     1     2     9     9
 0.0020765693     1     2     9    10
 -0.0767126115     1     2    10     1
 -0.0000000020     1     2    10     3
 0.0144970085     1     2    10     4
 -0.0031782958     1     2    10     6
 0.0000000004     1     2    10     7
 0.0000000006     1     2    10     8
 0.0026860481     1     2    10     9
 -0.0098172584     1     2    10    10
 0.0175722418     1     2    11     5
 -0.0137896368     1     2    11    11
 0.0000000005     1     3     2     1
 0.0000000012     1     3     2     2
 0.0000000002     1     3     2     4
 0.0000000004     1     3     2     6
 0.0021639537     1     3     2     7
 -0.0025067413     1     3     2     8
 -0.0000000016     1     3     2     9
 -0.0000000008     1     3     2    10
 -0.8624368960     1     3     3     1
 0.0308803907     1     3     3     2
 0.0096005572     1     3     3     4
 0.0041804414     1     3     3     6
 -0.0000000006     1     3     3     7
 -0.0000000012     1     3     3     8
 0.0019074004     1     3     3     9
 -0.0017782131     1     3     3    10
 0.0000000129     1     3     4     1
 -0.0000000008     1     3     4     2
 0.0000000010     1     3     4     4
 -0.0000000005     1     3     4     6
 -0.0010270712     1     3     4     7
 0.0039525713     1     3     4     8
 0.0000000030     1     3     4     9
 0.0000000003     1     3     4    10
 0.0000000015     1     3     5     5
 -0.0000000012     1     3     5    11
 0.0000000160     1     3     6     1
 -0.0000000006     1     3     6     2
 -0.0000000004     1     3     6     4
 -0.0000000002     1     3     6     6
 -0.0019036183     1     3     6     7
 -0.0003155655     1     3     6     8
 -0.0000000006     1     3     6     9
 0.1456597573     1     3     7     1
 -0.0079896284     1     3     7     2
 -0.0026174187     1     3     7     4
 -0.0036873859     1     3     7     6
 0.0000000004     1     3     7     7
 0.0000000017     1     3     7     8
 -0.0018183068     1     3     7     9
 -0.0011467849     1     3     7    10
 -0.0800562113     1     3     8     1
 0.0059470265     1     3     8     2
 0.0017703198     1     3     8     4
 0.0018952389     1     3     8     6
 0.0000000012     1     3     8     7
 -0.0000000031     1     3     8     8
 0.0007516846     1     3     8     9
 0.0040129792     1     3     8    10
 -0.0000000433     1     3     9     1
 0.0000000037     1     3     9     2
 0.0000000011     1     3     9     4
 0.0000000010     1     3     9     6
 -0.0014493806     1     3     9     7
 0.0008761026     1     3     9     8
 0.0000000008     1     3     9     9
 0.0000000032     1     3     9    10
 -0.0000000236     1     3    10     1
 0.0000000020     1     3    10     2
 0.0000000001     1     3    10     4
 0.0000000007     1     3    10     6
 -0.0009171662     1     3    10     7
 0.0017421288     1     3    10     8
 0.0000000015     1     3    10     9
 0.0000000021     1     3    10    10
 -0.0000000005     1     3    11     5
 -0.0667244524     1     4     2     1
 -0.0062660363     1     4     2     2
 -0.0000000002     1     4     2     3
 -0.0001690684     1     4     2     6
 0.0000000002     1     4     2     7
 0.0000000003     1     4     2     8
 -0.0014566473     1     4     2     9
 0.0026056149     1     4     2    10
 0.0000000129     1     4     3     1
 -0.0000000009     1     4     3     2
 -0.0096005572     1     4     3     3
 -0.0000000001     1     4     3     6
 0.0017584219     1     4     3     7
 0.0020825430     1     4     3     8
 0.0000000018     1     4     3     9
 0.0000000003     1     4     3    10
 -0.9488620174     1     4     4     1
 0.0362083360     1     4     4     2
 -0.0000000010     1     4     4     3
 0.0083944015     1     4     4     6
 -0.0000000003     1     4     4     7
 -0.0000000065     1     4     4     8
 0.0049588971     1     4     4     9
 0.0086912968     1     4     4    10
 -0.0127442565     1     4     5     5
 0.0070741481     1     4     5    11
 0.0676276234     1     4     6     1
 -0.0060486479     1     4     6     2
 0.0000000004     1     4     6     3
 -0.0032452317     1     4     6     6
 -0.0000000002     1     4     6     7
 0.0000000014     1     4     6     8
 -0.0001950188     1     4     6     9
 -0.0037670288     1     4     6    10
 0.0000000092     1     4     7     1
 -0.0000000003     1     4     7     2
 0.0026174187     1     4     7     3
 -0.0000000003     1     4     7     6
 -0.0019992283     1     4     7     7
 0.0009610991     1     4     7     8
 0.0000000005     1     4     7     9
 0.0000000002     1     4     7    10
 -0.0000000060     1     4     8     1
 0.0000000026     1     4     8     2
 -0.0017703198     1     4     8     3
 0.0000000009     1     4     8     6
 0.0021556459     1     4     8     7
 -0.0013124557     1     4     8     8
 0.0000000012     1     4     8     9
 0.0000000022     1     4     8    10
 -0.0817928720     1     4     9     1
 0.0028453130     1     4     9     2
 -0.0000000011     1     4     9     3
 0.0017953140     1     4     9     6
 0.0000000014     1     4     9     7
 -0.0000000002     1     4     9     8
 -0.0005954488     1     4     9     9
 -0.0008008689     1     4     9    10
 0.2128855153     1     4    10     1
 -0.0144970085     1     4    10     2
 -0.0000000001     1     4    10     3
 -0.0065308576     1     4    10     6
 0.0000000008     1     4    10     7
 0.0000000050     1     4    10     8
 -0.0045328703     1     4    10     9
 -0.0048967182     1     4    10    10
 0.0057774798     1     4    11     5
 -0.0043541769     1     4    11    11
 0.0049384573     1     5     2    11
 -0.0000000006     1     5     3    11
 0.0009203619     1     5     4    11
 -0.9979129499     1     5     5     1
 0.0411363681     1     5     5     2
 -0.0000000015     1     5     5     3
 0.0127442565     1     5     5     4
 0.0081094091     1     5     5     6
 -0.0000000003     1     5     5     7
 -0.0000000092     1     5     5     8
 0.0097368649     1     5     5     9
 0.0039603051     1     5     5    10
 -0.0021162687     1     5     6    11
 0.0000000001     1     5     7    11
 -0.0000000016     1     5     8    11
 0.0017959869     1     5     9    11
 0.0004044258     1     5    10    11
 0.2868814327     1     5    11     1
 -0.0175722418     1     5    11     2
 0.0000000005     1     5    11     3
 -0.0057774798     1     5    11     4
 -0.0071247425     1     5    11     6
 0.0000000002     1     5    11     7
 0.0000000041     1     5    11     8
 -0.0041036811     1     5    11     9
 -0.0023214254     1     5    11    10
 -0.1268816161     1     6     2     1
 0.0011212254     1     6     2     2
 -0.0000000004     1     6     2     3
 0.0001690684     1     6     2     4
 0.0000000001     1     6     2     7
 0.0003775113     1     6     2     9
 -0.0008011371     1     6     2    10
 0.0000000160     1     6     3     1
 -0.0000000011     1     6     3     2
 -0.0041804414     1     6     3     3
 0.0000000001     1     6     3     4
 0.0018227320     1     6     3     7
 -0.0022375387     1     6     3     8
 -0.0000000015     1     6     3     9
 -0.0000000007     1     6     3    10
 0.0676276234     1     6     4     1
 -0.0064357360     1     6     4     2
 0.0000000005     1     6     4     3
 -0.0083944015     1     6     4     4
 0.0000000001     1     6     4     7
 0.0000000004     1     6     4     8
 -0.0019705864     1     6     4     9
 0.0028157012     1     6     4    10
 -0.0081094091     1     6     5     5
 0.0049349842     1     6     5    11
 -0.3192453539     1     6     6     1
 0.0014805958     1     6     6     2
 0.0000000002     1     6     6     3
 0.0032452317     1     6     6     4
 -0.0000000001     1     6     6     7
 0.0000000001     1     6     6     8
 0.0004683762     1     6     6     9
 -0.0010789561     1     6     6    10
 -0.0000000037     1     6     7     1
 0.0000000006     1     6     7     2
 0.0036873859     1     6     7     3
 0.0000000003     1     6     7     4
 -0.0012388337     1     6     7     7
 0.0010994350     1     6     7     8
 0.0000000008     1     6     7     9
 0.0000000002     1     6     7    10
 0.0000000766     1     6     8     1
 -0.0000000011     1     6     8     2
 -0.0018952389     1     6     8     3
 -0.0000000009     1     6     8     4
 0.0004576652     1     6     8     7
 -0.0004378779     1     6     8     8
 -0.0000000009     1     6     8     9
 -0.0000000004     1     6     8    10
 -0.0412023975     1     6     9     1
 -0.0003093619     1     6     9     2
 -0.0000000010     1     6     9     3
 -0.0017953140     1     6     9     4
 0.0000000002     1     6     9     7
 -0.0000000006     1     6     9     8
 -0.0001120585     1     6     9     9
 0.0012648832     1     6     9    10
 -0.1076168606     1     6    10     1
 0.0031782958     1     6    10     2
 -0.0000000007     1     6    10     3
 0.0065308576     1     6    10     4
 -0.0000000008     1     6    10     8
 0.0018939589     1     6    10     9
 -0.0028403991     1     6    10    10
 0.0071247425     1     6    11     5
 -0.0047009181     1     6    11    11
 0.0000000091     1     7     2     1
 -0.0000000003     1     7     2     2
 -0.0021639537     1     7     2     3
 -0.0000000002     1     7     2     4
 -0.0000000001     1     7     2     6
 0.0003073681     1     7     2     8
 0.0000000002     1     7     2     9
 0.0000000001     1     7     2    10
 0.1456597573     1     7     3     1
 -0.0109375042     1     7     3     2
 0.0000000006     1     7     3     3
 -0.0017584219     1     7     3     4
 -0.0018227320     1     7     3     6
 0.0000000006     1     7     3     8
 -0.0004235863     1     7     3     9
 -0.0001768720     1     7     3    10
 0.0000000092     1     7     4     1
 -0.0000000005     1     7     4     2
 0.0010270712     1     7     4     3
 0.0000000003     1     7     4     4
 -0.0000000001     1     7     4     6
 -0.0012051027     1     7     4     8
 -0.0000000010     1     7     4     9
 -0.0000000006     1     7     4    10
 0.0000000003     1     7     5     5
 -0.0000000001     1     7     5    11
 -0.0000000037     1     7     6     1
 0.0000000005     1     7     6     2
 0.0019036183     1     7     6     3
 0.0000000002     1     7     6     4
 0.0000000001     1     7     6     6
 0.0006425673     1     7     6     8
 0.0000000006     1     7     6     9
 0.0000000002     1     7     6    10
 -0.2856931140     1     7     7     1
 0.0035524571     1     7     7     2
 -0.0000000004     1     7     7     3
 0.0019992283     1     7     7     4
 0.0012388337     1     7     7     6
 -0.0000000008     1     7     7     8
 0.0008425728     1     7     7     9
 -0.0000199543     1     7     7    10
 0.0696073109     1     7     8     1
 -0.0025851705     1     7     8     2
 -0.0000000012     1     7     8     3
 -0.0021556459     1     7     8     4
 -0.0004576652     1     7     8     6
 0.0000000007     1     7     8     8
 -0.0004929517     1     7     8     9
 -0.0007077196     1     7     8    10
 0.0000000476     1     7     9     1
 -0.0000000017     1     7     9     2
 0.0014493806     1     7     9     3
 -0.0000000014     1     7     9     4
 -0.0000000002     1     7     9     6
 0.0000929447     1     7     9     8
 -0.0000000001     1     7     9     9
 -0.0000000005     1     7     9    10
 0.0000000161     1     7    10     1
 -0.0000000004     1     7    10     2
 0.0009171662     1     7    10     3
 -0.0000000008     1     7    10     4
 -0.0003795874     1     7    10     8
 -0.0000000004     1     7    10     9
 -0.0000000002     1     7    10    10
 -0.0000000002     1     7    11     5
 0.0000000003     1     7    11    11
 0.0000000820     1     8     2     1
 0.0025067413     1     8     2     3
 -0.0000000003     1     8     2     4
 -0.0003073681     1     8     2     7
 -0.0000000002     1     8     2     9
 0.0000000005     1     8     2    10
 -0.0800562113     1     8     3     1
 0.0090296548     1     8     3     2
 0.0000000012     1     8     3     3
 -0.0020825430     1     8     3     4
 0.0022375387     1     8     3     6
 -0.0000000006     1     8     3     7
 -0.0000368111     1     8     3     9
 0.0022089151     1     8     3    10
 -0.0000000060     1     8     4     1
 0.0000000024     1     8     4     2
 -0.0039525713     1     8     4     3
 0.0000000065     1     8     4     4
 -0.0000000004     1     8     4     6
 0.0012051027     1     8     4     7
 0.0000000013     1     8     4     9
 -0.0000000028     1     8     4    10
 0.0000000092     1     8     5     5
 -0.0000000056     1     8     5    11
 0.0000000766     1     8     6     1
 -0.0000000010     1     8     6     2
 0.0003155655     1     8     6     3
 -0.0000000014     1     8     6     4
 -0.0000000001     1     8     6     6
 -0.0006425673     1     8     6     7
 -0.0000000003     1     8     6     9
 0.0000000004     1     8     6    10
 0.0696073109     1     8     7     1
 -0.0029023190     1     8     7     2
 -0.0000000017     1     8     7     3
 -0.0009610991     1     8     7     4
 -0.0010994350     1     8     7     6
 0.0000000008     1     8     7     7
 -0.0005839480     1     8     7     9
 -0.0003276713     1     8     7    10
 -0.3914292624     1     8     8     1
 0.0022758173     1     8     8     2
 0.0000000031     1     8     8     3
 0.0013124557     1     8     8     4
 0.0004378779     1     8     8     6
 -0.0000000007     1     8     8     7
 0.0003422301     1     8     8     9
 0.0007885683     1     8     8    10
 -0.0000000108     1     8     9     1
 0.0000000016     1     8     9     2
 -0.0008761026     1     8     9     3
 0.0000000002     1     8     9     4
 0.0000000006     1     8     9     6
 -0.0000929447     1     8     9     7
 0.0000000008     1     8     9    10
 0.0000000288     1     8    10     1
 -0.0000000006     1     8    10     2
 -0.0017421288     1     8    10     3
 -0.0000000050     1     8    10     4
 0.0000000008     1     8    10     6
 0.0003795874     1     8    10     7
 -0.0000000010     1     8    10     9
 0.0000000030     1     8    10    10
 -0.0000000041     1     8    11     5
 0.0000000027     1     8    11    11
 -0.0723584966     1     9     2     1
 -0.0012328057     1     9     2     2
 0.0000000016     1     9     2     3
 0.0014566473     1     9     2     4
 -0.0003775113     1     9     2     6
 -0.0000000002     1     9     2     7
 0.0000000002     1     9     2     8
 -0.0006367101     1     9     2    10
 -0.0000000433     1     9     3     1
 0.0000000056     1     9     3     2
 -0.0019074004     1     9     3     3
 -0.0000000018     1     9     3     4
 0.0000000015     1     9     3     6
 0.0004235863     1     9     3     7
 0.0000368111     1     9     3     8
 0.0000000016     1     9     3    10
 -0.0817928720     1     9     4     1
 0.0046463155     1     9     4     2
 -0.0000000030     1     9     4     3
 -0.0049588971     1     9     4     4
 0.0019705864     1     9     4     6
 0.0000000010     1     9     4     7
 -0.0000000013     1     9     4     8
 0.0037269464     1     9     4    10
 -0.0097368649     1     9     5     5
 0.0058316462     1     9     5    11
 -0.0412023975     1     9     6     1
 -0.0006980752     1     9     6     2
 0.0000000006     1     9     6     3
 0.0001950188     1     9     6     4
 -0.0004683762     1     9     6     6
 -0.0000000006     1     9     6     7
 0.0000000003     1     9     6     8
 -0.0006309995     1     9     6    10
 0.0000000476     1     9     7     1
 -0.0000000019     1     9     7     2
 0.0018183068     1     9     7     3
 -0.0000000005     1     9     7     4
 -0.0000000008     1     9     7     6
 -0.0008425728     1     9     7     7
 0.0005839480     1     9     7     8
 -0.0000000001     1     9     7    10
 -0.0000000108     1     9     8     1
 0.0000000018     1     9     8     2
 -0.0007516846     1     9     8     3
 -0.0000000012     1     9     8     4
 0.0000000009     1     9     8     6
 0.0004929517     1     9     8     7
 -0.0003422301     1     9     8     8
 0.0000000018     1     9     8    10
 -0.3717961145     1     9     9     1
 0.0006596871     1     9     9     2
 -0.0000000008     1     9     9     3
 0.0005954488     1     9     9     4
 0.0001120585     1     9     9     6
 0.0000000001     1     9     9     7
 -0.0003521618     1     9     9    10
 -0.0020467713     1     9    10     1
 -0.0026860481     1     9    10     2
 -0.0000000015     1     9    10     3
 0.0045328703     1     9    10     4
 -0.0018939589     1     9    10     6
 0.0000000004     1     9    10     7
 0.0000000010     1     9    10     8
 -0.0033776290     1     9    10    10
 0.0041036811     1     9    11     5
 -0.0028256296     1     9    11    11
 -0.0767126115     1    10     2     1
 0.0040028218     1    10     2     2
 0.0000000008     1    10     2     3
 -0.0026056149     1    10     2     4
 0.0008011371     1    10     2     6
 -0.0000000001     1    10     2     7
 -0.0000000005     1    10     2     8
 0.0006367101     1    10     2     9
 -0.0000000236     1    10     3     1
 0.0000000029     1    10     3     2
 0.0017782131     1    10     3     3
 -0.0000000003     1    10     3     4
 0.0000000007     1    10     3     6
 0.0001768720     1    10     3     7
 -0.0022089151     1    10     3     8
 -0.0000000016     1    10     3     9
 0.2128855153     1    10     4     1
 -0.0184803868     1    10     4     2
 -0.0000000003     1    10     4     3
 -0.0086912968     1    10     4     4
 -0.0028157012     1    10     4     6
 0.0000000006     1    10     4     7
 0.0000000028     1    10     4     8
 -0.0037269464     1    10     4     9
 -0.0039603051     1    10     5     5
 0.0025848675     1    10     5    11
 -0.1076168606     1    10     6     1
 0.0039499636     1    10     6     2
 0.0037670288     1    10     6     4
 0.0010789561     1    10     6     6
 -0.0000000002     1    10     6     7
 -0.0000000004     1    10     6     8
 0.0006309995     1    10     6     9
 0.0000000161     1    10     7     1
 -0.0000000005     1    10     7     2
 0.0011467849     1    10     7     3
 -0.0000000002     1    10     7     4
 -0.0000000002     1    10     7     6
 0.0000199543     1    10     7     7
 0.0003276713     1    10     7     8
 0.0000000001     1    10     7     9
 0.0000000288     1    10     8     1
 -0.0000000011     1    10     8     2
 -0.0040129792     1    10     8     3
 -0.0000000022     1    10     8     4
 0.0000000004     1    10     8     6
 0.0007077196     1    10     8     7
 -0.0007885683     1    10     8     8
 -0.0000000018     1    10     8     9
 -0.0020467713     1    10     9     1
 -0.0020765693     1    10     9     2
 -0.0000000032     1    10     9     3
 0.0008008689     1    10     9     4
 -0.0012648832     1    10     9     6
 0.0000000005     1    10     9     7
 -0.0000000008     1    10     9     8
 0.0003521618     1    10     9     9
 -0.4691712786     1    10    10     1
 0.0098172584     1    10    10     2
 -0.0000000021     1    10    10     3
 0.0048967182     1    10    10     4
 0.0028403991     1    10    10     6
 0.0000000002     1    10    10     7
 -0.0000000030     1    10    10     8
 0.0033776290     1    10    10     9
 0.0023214254     1    10    11     5
 -0.0015429371     1    10    11    11
 -0.0049384573     1    11     2     5
 0.0000000006     1    11     3     5
 -0.0009203619     1    11     4     5
 0.2868814327     1    11     5     1
 -0.0242087181     1    11     5     2
 0.0000000012     1    11     5     3
 -0.0070741481     1    11     5     4
 -0.0049349842     1    11     5     6
 0.0000000001     1    11     5     7
 0.0000000056     1    11     5     8
 -0.0058316462     1    11     5     9
 -0.0025848675     1    11     5    10
 0.0021162687     1    11     6     5
 -0.0000000001     1    11     7     5
 0.0000000016     1    11     8     5
 -0.0017959869     1    11     9     5
 -0.0004044258     1    11    10     5
 -0.5426727324     1    11    11     1
 0.0137896368     1    11    11     2
 0.0043541769     1    11    11     4
 0.0047009181     1    11    11     6
 -0.0000000003     1    11    11     7
 -0.0000000027     1    11    11     8
 0.0028256296     1    11    11     9
 0.0015429371     1    11    11    10
 -0.9845246326     2     1     1     2
 0.0000000005     2     1     1     3
 -0.0667244524     2     1     1     4
 -0.1268816161     2     1     1     6
 0.0000000091     2     1     1     7
 0.0000000820     2     1     1     8
 -0.0723584966     2     1     1     9
 -0.0767126115     2     1     1    10
 -0.0000000012     2     1     3     2
 -0.0308803907     2     1     3     3
 0.0000000008     2     1     3     4
 0.0000000006     2     1     3     6
 0.0079896284     2     1     3     7
 -0.0059470265     2     1     3     8
 -0.0000000037     2     1     3     9
 -0.0000000020     2     1     3    10
 0.0062660363     2     1     4     2
 0.0000000009     2     1     4     3
 -0.0362083360     2     1     4     4
 0.0060486479     2     1     4     6
 0.0000000003     2     1     4     7
 -0.0000000026     2     1     4     8
 -0.0028453130     2     1     4     9
 0.0144970085     2     1     4    10
 -0.0411363681     2     1     5     5
 0.0175722418     2     1     5    11
 -0.0011212254     2     1     6     2
 0.0000000011     2     1     6     3
 0.0064357360     2     1     6     4
 -0.0014805958     2     1     6     6
 -0.0000000006     2     1     6     7
 0.0000000011     2     1     6     8
 0.0003093619     2     1     6     9
 -0.0031782958     2     1     6    10
 0.0000000003     2     1     7     2
 0.0109375042     2     1     7     3
 0.0000000005     2     1     7     4
 -0.0000000005     2     1     7     6
 -0.0035524571     2     1     7     7
 0.0025851705     2     1     7     8
 0.0000000017     2     1     7     9
 0.0000000004     2     1     7    10
 -0.0090296548     2     1     8     3
 -0.0000000024     2     1     8     4
 0.0000000010     2     1     8     6
 0.0029023190     2     1     8     7
 -0.0022758173     2     1     8     8
 -0.0000000016     2     1     8     9
 0.0000000006     2     1     8    10
 0.0012328057     2     1     9     2
 -0.0000000056     2     1     9     3
 -0.0046463155     2     1     9     4
 0.0006980752     2     1     9     6
 0.0000000019     2     1     9     7
 -0.0000000018     2     1     9     8
 -0.0006596871     2     1     9     9
 0.0026860481     2     1     9    10
 -0.0040028218     2     1    10     2
 -0.0000000029     2     1    10     3
 0.0184803868     2     1    10     4
 -0.0039499636     2     1    10     6
 0.0000000005     2     1    10     7
 0.0000000011     2     1    10     8
 0.0020765693     2     1    10     9
 -0.0098172584     2     1    10    10
 0.0242087181     2     1    11     5
 -0.0137896368     2     1    11    11
 0.9845246326     2     2     1     1
 0.0000000012     2     2     1     3
 -0.0062660363     2     2     1     4
 0.0011212254     2     2     1     6
 -0.0000000003     2     2     1     7
 -0.0012328057     2     2     1     9
 0.0040028218     2     2     1    10
 0.0000000012     2     2     3     1
 0.5227786606     2     2     3     3
 -0.0000000041     2     2     3     4
 -0.0000000072     2     2     3     6
 -0.0602387590     2     2     3     7
 0.0180394254     2     2     3     8
 0.0000000057     2     2     3     9
 0.0000000045     2     2     3    10
 -0.0062660363     2     2     4     1
 -0.0000000041     2     2     4     3
 0.5506115005     2     2     4     4
 -0.0296295646     2     2     4     6
 -0.0000000042     2     2     4     7
 0.0000000005     2     2     4     8
 0.0344378941     2     2     4     9
 -0.0831273815     2     2     4    10
 0.5772369319     2     2     5     5
 -0.1118000655     2     2     5    11
 0.0011212254     2     2     6     1
 -0.0000000072     2     2     6     3
 -0.0296295646     2     2     6     4
 0.2803972691     2     2     6     6
 -0.0000000002     2     2     6     7
 -0.0000000440     2     2     6     8
 0.0223152957     2     2     6     9
 0.0643679022     2     2     6    10
 -0.0000000003     2     2     7     1
 -0.0602387590     2     2     7     3
 -0.0000000042     2     2     7     4
 -0.0000000002     2     2     7     6
 0.2555737307     2     2     7     7
 -0.0449144933     2     2     7     8
 -0.0000000307     2     2     7     9
 -0.0000000119     2     2     7    10
 0.0180394254     2     2     8     3
 0.0000000005     2     2     8     4
 -0.0000000440     2     2     8     6
 -0.0449144933     2     2     8     7
 0.3578358412     2     2     8     8
 0.0000000042     2     2     8     9
 -0.0000000145     2     2     8    10
 -0.0012328057     2     2     9     1
 0.0000000057     2     2     9     3
 0.0344378941     2     2     9     4
 0.0223152957     2     2     9     6
 -0.0000000307     2     2     9     7
 0.0000000042     2     2     9     8
 0.3447154875     2     2     9     9
 0.0154717557     2     2     9    10
 0.0040028218     2     2    10     1
 0.0000000045     2     2    10     3