&FCI NORB= 12,NELEC= 10,MS2=0,
 ORBSYM=1,1,1,1,1,1,1,1,1,1,1,1
 ISYM=1,
&END
 0.9834409845     1     1     2     2
 0.0685549388     1     1     2     4
 -0.1438891779     1     1     2     6
 -0.1146514667     1     1     2     9
 0.0388022229     1     1     2    10
 -0.0677370767     1     1     2    12
 0.8682009764     1     1     3     3
 0.1741202582     1     1     3     7
 0.1036216423     1     1     3     8
 0.0685549388     1     1     4     2
 0.9521304273     1     1     4     4
 0.0774775139     1     1     4     6
 0.0613308605     1     1     4     9
 -0.2607440669     1     1     4    10
 0.0391289961     1     1     4    12
 1.0019581779     1     1     5     5
 -0.3366341457     1     1     5    11
 -0.1438891779     1     1     6     2
 0.0774775139     1     1     6     4
 0.3480707694     1     1     6     6
 0.1073595235     1     1     6     9
 -0.0899445326     1     1     6    10
 0.0572019384     1     1     6    12
 0.1741202582     1     1     7     3
 0.3256173349     1     1     7     7
 0.0990407607     1     1     7     8
 0.1036216423     1     1     8     3
 0.0990407607     1     1     8     7
 0.4550825605     1     1     8     8
 -0.1146514667     1     1     9     2
 0.0613308605     1     1     9     4
 0.1073595235     1     1     9     6
 0.4550453982     1     1     9     9
 -0.0558184794     1     1     9    10
 0.0197117451     1     1     9    12
 0.0388022229     1     1    10     2
 -0.2607440669     1     1    10     4
 -0.0899445326     1     1    10     6
 -0.0558184794     1     1    10     9
 0.5360551640     1     1    10    10
 -0.0456463500     1     1    10    12
 -0.3366341457     1     1    11     5
 0.6619612106     1     1    11    11
 -0.0677370767     1     1    12     2
 0.0391289961     1     1    12     4
 0.0572019384     1     1    12     6
 0.0197117451     1     1    12     9
 -0.0456463500     1     1    12    10
 0.4318754617     1     1    12    12
 -0.9834409845     1     2     2     1
 -0.0069561530     1     2     2     4
 -0.0015337758     1     2     2     6
 -0.0018676377     1     2     2     9
 0.0056456205     1     2     2    10
 -0.0014701779     1     2     2    12
 0.0309480964     1     2     3     3
 0.0131145510     1     2     3     7
 0.0116517852     1     2     3     8
 -0.0685549388     1     2     4     1
 0.0359827231     1     2     4     4
 0.0072425503     1     2     4     6
 0.0079068612     1     2     4     9
 -0.0223316700     1     2     4    10
 0.0059283340     1     2     4    12
 0.0411010160     1     2     5     5
 -0.0288976304     1     2     5    11
 0.1438891779     1     2     6     1
 0.0070685344     1     2     6     4
 0.0017680440     1     2     6     6
 0.0021432291     1     2     6     9
 -0.0051694212     1     2     6    10
 0.0014630983     1     2     6    12
 0.0096729946     1     2     7     3
 0.0048460541     1     2     7     7
 0.0042827460     1     2     7     8
 0.0077840070     1     2     8     3
 0.0038086446     1     2     8     7
 0.0033836658     1     2     8     8
 0.1146514667     1     2     9     1
 0.0069011889     1     2     9     4
 0.0018826239     1     2     9     6
 0.0017070715     1     2     9     9
 -0.0052511958     1     2     9    10
 0.0014176368     1     2     9    12
 -0.0388022229     1     2    10     1
 -0.0167076290     1     2    10     4
 -0.0036877338     1     2    10     6
 -0.0043260129     1     2    10     9
 0.0133383277     1     2    10    10
 -0.0026692430     1     2    10    12
 -0.0212604899     1     2    11     5
 0.0189556789     1     2    11    11
 0.0677370767     1     2    12     1
 0.0042543645     1     2    12     4
 0.0009969570     1     2    12     6
 0.0011054391     1     2    12     9
 -0.0025074405     1     2    12    10
 0.0006579358     1     2    12    12
 0.0026414912     1     3     2     7
 0.0032520430     1     3     2     8
 -0.8682009764     1     3     3     1
 -0.0309480964     1     3     3     2
 -0.0105539796     1     3     3     4
 0.0045778230     1     3     3     6
 0.0003244467     1     3     3     9
 0.0025679934     1     3     3    10
 0.0049738880     1     3     3    12
 -0.0012760605     1     3     4     7
 -0.0049217268     1     3     4     8
 0.0021207291     1     3     6     7
 -0.0004200890     1     3     6     8
 -0.1741202582     1     3     7     1
 -0.0096729946     1     3     7     2
 -0.0034239732     1     3     7     4
 0.0045237425     1     3     7     6
 0.0025477934     1     3     7     9
 -0.0001771707     1     3     7    10
 0.0016630546     1     3     7    12
 -0.1036216423     1     3     8     1
 -0.0077840070     1     3     8     2
 -0.0024670181     1     3     8     4
 0.0027397392     1     3     8     6
 0.0046254346     1     3     8     9
 -0.0038551697     1     3     8    10
 0.0034789057     1     3     8    12
 0.0019681157     1     3     9     7
 0.0028828952     1     3     9     8
 0.0001961738     1     3    10     7
 -0.0005064875     1     3    10     8
 -0.0008189357     1     3    12     7
 0.0006404657     1     3    12     8
 -0.0685549388     1     4     2     1
 0.0069561530     1     4     2     2
 -0.0003866444     1     4     2     6
 0.0004941503     1     4     2     9
 -0.0042238831     1     4     2    10
 0.0013416684     1     4     2    12
 0.0105539796     1     4     3     3
 0.0023375929     1     4     3     7
 -0.0023547375     1     4     3     8
 -0.9521304273     1     4     4     1
 -0.0359827231     1     4     4     2
 0.0091707692     1     4     4     6
 0.0096323393     1     4     4     9
 -0.0065780270     1     4     4    10
 0.0003591548     1     4     4    12
 0.0137522995     1     4     5     5
 -0.0091550532     1     4     5    11
 -0.0774775139     1     4     6     1
 -0.0070685344     1     4     6     2
 0.0040981863     1     4     6     6
 0.0028883663     1     4     6     9
 -0.0037836077     1     4     6    10
 0.0011192002     1     4     6    12
 0.0034239732     1     4     7     3
 0.0027367218     1     4     7     7
 0.0011565093     1     4     7     8
 0.0024670181     1     4     8     3
 0.0028729944     1     4     8     7
 0.0028230184     1     4     8     8
 -0.0613308605     1     4     9     1
 -0.0069011889     1     4     9     2
 0.0029727950     1     4     9     6
 0.0060046652     1     4     9     9
 -0.0019974819     1     4     9    10
 0.0007305747     1     4     9    12
 0.2607440669     1     4    10     1
 0.0167076290     1     4    10     2
 -0.0082260333     1     4    10     6
 -0.0066374317     1     4    10     9
 0.0028864902     1     4    10    10
 -0.0047017056     1     4    10    12
 -0.0075127550     1     4    11     5
 0.0064785760     1     4    11    11
 -0.0391289961     1     4    12     1
 -0.0042543645     1     4    12     2
 0.0026602775     1     4    12     6
 0.0022993918     1     4    12     9
 -0.0057783836     1     4    12    10
 0.0034474443     1     4    12    12
 -0.0059286826     1     5     2    11
 -0.0011590921     1     5     4    11
 -1.0019581779     1     5     5     1
 -0.0411010160     1     5     5     2
 -0.0137522995     1     5     5     4
 0.0088617967     1     5     5     6
 0.0118060129     1     5     5     9
 0.0028927987     1     5     5    10
 0.0065008738     1     5     5    12
 -0.0023248896     1     5     6    11
 0.0023071853     1     5     9    11
 0.0016297047     1     5    10    11
 0.3366341457     1     5    11     1
 0.0212604899     1     5    11     2
 0.0075127550     1     5    11     4
 -0.0088582848     1     5    11     6
 -0.0064866947     1     5    11     9
 -0.0000460310     1     5    11    10
 -0.0038986753     1     5    11    12
 0.0009318237     1     5    12    11
 0.1438891779     1     6     2     1
 0.0015337758     1     6     2     2
 0.0003866444     1     6     2     4
 0.0003039002     1     6     2     9
 -0.0014825350     1     6     2    10
 0.0004760518     1     6     2    12
 -0.0045778230     1     6     3     3
 -0.0024575632     1     6     3     7
 -0.0032080953     1     6     3     8
 -0.0774775139     1     6     4     1
 -0.0072425503     1     6     4     2
 -0.0091707692     1     6     4     4
 -0.0001355088     1     6     4     9
 0.0044993847     1     6     4    10
 -0.0015473542     1     6     4    12
 -0.0088617967     1     6     5     5
 0.0064578706     1     6     5    11
 -0.3480707694     1     6     6     1
 -0.0017680440     1     6     6     2
 -0.0040981863     1     6     6     4
 -0.0003796733     1     6     6     9
 0.0018949307     1     6     6    10
 -0.0004286669     1     6     6    12
 -0.0045237425     1     6     7     3
 -0.0017790209     1     6     7     7
 -0.0017566027     1     6     7     8
 -0.0027397392     1     6     8     3
 -0.0008481088     1     6     8     7
 -0.0006086407     1     6     8     8
 -0.1073595235     1     6     9     1
 -0.0018826239     1     6     9     2
 -0.0029727950     1     6     9     4
 0.0006961290     1     6     9     9
 0.0016012420     1     6     9    10
 -0.0003493614     1     6     9    12
 0.0899445326     1     6    10     1
 0.0036877338     1     6    10     2
 0.0082260333     1     6    10     4
 0.0005810644     1     6    10     9
 -0.0051471737     1     6    10    10
 0.0002404305     1     6    10    12
 0.0088582848     1     6    11     5
 -0.0068612858     1     6    11    11
 -0.0572019384     1     6    12     1
 -0.0009969570     1     6    12     2
 -0.0026602775     1     6    12     4
 -0.0001450428     1     6    12     9
 0.0003954455     1     6    12    10
 0.0003973325     1     6    12    12
 -0.0026414912     1     7     2     3
 0.0004646437     1     7     2     8
 -0.1741202582     1     7     3     1
 -0.0131145510     1     7     3     2
 -0.0023375929     1     7     3     4
 0.0024575632     1     7     3     6
 0.0005970562     1     7     3     9
 -0.0002995154     1     7     3    10
 0.0025186324     1     7     3    12
 0.0012760605     1     7     4     3
 -0.0017414530     1     7     4     8
 -0.0021207291     1     7     6     3
 -0.0009095101     1     7     6     8
 -0.3256173349     1     7     7     1
 -0.0048460541     1     7     7     2
 -0.0027367218     1     7     7     4
 0.0017790209     1     7     7     6
 0.0009280002     1     7     7     9
 0.0006138172     1     7     7    10
 0.0005968787     1     7     7    12
 -0.0990407607     1     7     8     1
 -0.0038086446     1     7     8     2
 -0.0028729944     1     7     8     4
 0.0008481088     1     7     8     6
 0.0016132590     1     7     8     9
 -0.0005496184     1     7     8    10
 0.0012635152     1     7     8    12
 -0.0019681157     1     7     9     3
 0.0005414439     1     7     9     8
 -0.0001961738     1     7    10     3
 -0.0002962021     1     7    10     8
 0.0008189357     1     7    12     3
 0.0005610326     1     7    12     8
 -0.0032520430     1     8     2     3
 -0.0004646437     1     8     2     7
 -0.1036216423     1     8     3     1
 -0.0116517852     1     8     3     2
 0.0023547375     1     8     3     4
 0.0032080953     1     8     3     6
 0.0017913667     1     8     3     9
 -0.0032665840     1     8     3    10
 0.0028715708     1     8     3    12
 0.0049217268     1     8     4     3
 0.0017414530     1     8     4     7
 0.0004200890     1     8     6     3
 0.0009095101     1     8     6     7
 -0.0990407607     1     8     7     1
 -0.0042827460     1     8     7     2
 -0.0011565093     1     8     7     4
 0.0017566027     1     8     7     6
 0.0010722300     1     8     7     9
 -0.0002546053     1     8     7    10
 0.0007041464     1     8     7    12
 -0.4550825605     1     8     8     1
 -0.0033836658     1     8     8     2
 -0.0028230184     1     8     8     4
 0.0006086407     1     8     8     6
 0.0012492805     1     8     8     9
 -0.0002030072     1     8     8    10
 0.0009485957     1     8     8    12
 -0.0028828952     1     8     9     3
 -0.0005414439     1     8     9     7
 0.0005064875     1     8    10     3
 0.0002962021     1     8    10     7
 -0.0006404657     1     8    12     3
 -0.0005610326     1     8    12     7
 0.1146514667     1     9     2     1
 0.0018676377     1     9     2     2
 -0.0004941503     1     9     2     4
 -0.0003039002     1     9     2     6
 -0.0009419617     1     9     2    10
 0.0002999428     1     9     2    12
 -0.0003244467     1     9     3     3
 -0.0005970562     1     9     3     7
 -0.0017913667     1     9     3     8
 -0.0613308605     1     9     4     1
 -0.0079068612     1     9     4     2
 -0.0096323393     1     9     4     4
 0.0001355088     1     9     4     6
 0.0046435311     1     9     4    10
 -0.0015313004     1     9     4    12
 -0.0118060129     1     9     5     5
 0.0086422170     1     9     5    11
 -0.1073595235     1     9     6     1
 -0.0021432291     1     9     6     2
 -0.0028883663     1     9     6     4
 0.0003796733     1     9     6     6
 0.0010221368     1     9     6    10
 -0.0002042475     1     9     6    12
 -0.0025477934     1     9     7     3
 -0.0009280002     1     9     7     7
 -0.0010722300     1     9     7     8
 -0.0046254346     1     9     8     3
 -0.0016132590     1     9     8     7
 -0.0012492805     1     9     8     8
 -0.4550453982     1     9     9     1
 -0.0017070715     1     9     9     2
 -0.0060046652     1     9     9     4
 -0.0006961290     1     9     9     6
 0.0035649189     1     9     9    10
 -0.0008244148     1     9     9    12
 0.0558184794     1     9    10     1
 0.0043260129     1     9    10     2
 0.0066374317     1     9    10     4
 -0.0005810644     1     9    10     6
 -0.0040109846     1     9    10    10
 -0.0001039950     1     9    10    12
 0.0064866947     1     9    11     5
 -0.0051080371     1     9    11    11
 -0.0197117451     1     9    12     1
 -0.0011054391     1     9    12     2
 -0.0022993918     1     9    12     4
 0.0001450428     1     9    12     6
 0.0000736259     1     9    12    10
 0.0004919383     1     9    12    12
 -0.0388022229     1    10     2     1
 -0.0056456205     1    10     2     2
 0.0042238831     1    10     2     4
 0.0014825350     1    10     2     6
 0.0009419617     1    10     2     9
 -0.0001354816     1    10     2    12
 -0.0025679934     1    10     3     3
 0.0002995154     1    10     3     7
 0.0032665840     1    10     3     8
 0.2607440669     1    10     4     1
 0.0223316700     1    10     4     2
 0.0065780270     1    10     4     4
 -0.0044993847     1    10     4     6
 -0.0046435311     1    10     4     9
 0.0010325050     1    10     4    12
 -0.0028927987     1    10     5     5
 0.0017633595     1    10     5    11
 0.0899445326     1    10     6     1
 0.0051694212     1    10     6     2
 0.0037836077     1    10     6     4
 -0.0018949307     1    10     6     6
 -0.0010221368     1    10     6     9
 -0.0001550974     1    10     6    12
 0.0001771707     1    10     7     3
 -0.0006138172     1    10     7     7
 0.0002546053     1    10     7     8
 0.0038551697     1    10     8     3
 0.0005496184     1    10     8     7
 0.0002030072     1    10     8     8
 0.0558184794     1    10     9     1
 0.0052511958     1    10     9     2
 0.0019974819     1    10     9     4
 -0.0016012420     1    10     9     6
 -0.0035649189     1    10     9     9
 -0.0001786768     1    10     9    12
 -0.5360551640     1    10    10     1
 -0.0133383277     1    10    10     2
 -0.0028864902     1    10    10     4
 0.0051471737     1    10    10     6
 0.0040109846     1    10    10     9
 0.0028383128     1    10    10    12
 0.0000460310     1    10    11     5
 -0.0001193333     1    10    11    11
 0.0456463500     1    10    12     1
 0.0025074405     1    10    12     2
 0.0057783836     1    10    12     4
 -0.0003954455     1    10    12     6
 -0.0000736259     1    10    12     9
 -0.0013232760     1    10    12    12
 0.0059286826     1    11     2     5
 0.0011590921     1    11     4     5
 0.3366341457     1    11     5     1
 0.0288976304     1    11     5     2
 0.0091550532     1    11     5     4
 -0.0064578706     1    11     5     6
 -0.0086422170     1    11     5     9
 -0.0017633595     1    11     5    10
 -0.0047897313     1    11     5    12
 0.0023248896     1    11     6     5
 -0.0023071853     1    11     9     5
 -0.0016297047     1    11    10     5
 -0.6619612106     1    11    11     1
 -0.0189556789     1    11    11     2
 -0.0064785760     1    11    11     4
 0.0068612858     1    11    11     6
 0.0051080371     1    11    11     9
 0.0001193333     1    11    11    10
 0.0030636016     1    11    11    12
 -0.0009318237     1    11    12     5
 0.0677370767     1    12     2     1
 0.0014701779     1    12     2     2
 -0.0013416684     1    12     2     4
 -0.0004760518     1    12     2     6
 -0.0002999428     1    12     2     9
 0.0001354816     1    12     2    10
 -0.0049738880     1    12     3     3
 -0.0025186324     1    12     3     7
 -0.0028715708     1    12     3     8
 -0.0391289961     1    12     4     1
 -0.0059283340     1    12     4     2
 -0.0003591548     1    12     4     4
 0.0015473542     1    12     4     6
 0.0015313004     1    12     4     9
 -0.0010325050     1    12     4    10
 -0.0065008738     1    12     5     5
 0.0047897313     1    12     5    11
 -0.0572019384     1    12     6     1
 -0.0014630983     1    12     6     2
 -0.0011192002     1    12     6     4
 0.0004286669     1    12     6     6
 0.0002042475     1    12     6     9
 0.0001550974     1    12     6    10
 -0.0016630546     1    12     7     3
 -0.0005968787     1    12     7     7
 -0.0007041464     1    12     7     8
 -0.0034789057     1    12     8     3
 -0.0012635152     1    12     8     7
 -0.0009485957     1    12     8     8
 -0.0197117451     1    12     9     1
 -0.0014176368     1    12     9     2
 -0.0007305747     1    12     9     4
 0.0003493614     1    12     9     6
 0.0008244148     1    12     9     9
 0.0001786768     1    12     9    10
 0.0456463500     1    12    10     1
 0.0026692430     1    12    10     2
 0.0047017056     1    12    10     4
 -0.0002404305     1    12    10     6
 0.0001039950     1    12    10     9
 -0.0028383128     1    12    10    10
 0.0038986753     1    12    11     5
 -0.0030636016     1    12    11    11
 -0.4318754617     1    12    12     1
 -0.0006579358     1    12    12     2
 -0.0034474443     1    12    12     4
 -0.0003973325     1    12    12     6
 -0.0004919383     1    12    12     9
 0.0013232760     1    12    12    10
 -0.9834409845     2     1     1     2
 -0.0685549388     2     1     1     4
 0.1438891779     2     1     1     6
 0.1146514667     2     1     1     9
 -0.0388022229     2     1     1    10
 0.0677370767     2     1     1    12
 0.0309480964     2     1     3     3
 0.0096729946     2     1     3     7
 0.0077840070     2     1     3     8
 -0.0069561530     2     1     4     2
 0.0359827231     2     1     4     4
 0.0070685344     2     1     4     6
 0.0069011889     2     1     4     9
 -0.0167076290     2     1     4    10
 0.0042543645     2     1     4    12
 0.0411010160     2     1     5     5
 -0.0212604899     2     1     5    11
 -0.0015337758     2     1     6     2
 0.0072425503     2     1     6     4
 0.0017680440     2     1     6     6
 0.0018826239     2     1     6     9
 -0.0036877338     2     1     6    10
 0.0009969570     2     1     6    12
 0.0131145510     2     1     7     3
 0.0048460541     2     1     7     7
 0.0038086446     2     1     7     8
 0.0116517852     2     1     8     3
 0.0042827460     2     1     8     7
 0.0033836658     2     1     8     8
 -0.0018676377     2     1     9     2
 0.0079068612     2     1     9     4
 0.0021432291     2     1     9     6
 0.0017070715     2     1     9     9
 -0.0043260129     2     1     9    10
 0.0011054391     2     1     9    12
 0.0056456205     2     1    10     2
 -0.0223316700     2     1    10     4
 -0.0051694212     2     1    10     6
 -0.0052511958     2     1    10     9
 0.0133383277     2     1    10    10
 -0.0025074405     2     1    10    12
 -0.0288976304     2     1    11     5
 0.0189556789     2     1    11    11
 -0.0014701779     2     1    12     2
 0.0059283340     2     1    12     4
 0.0014630983     2     1    12     6
 0.0014176368     2     1    12     9
 -0.0026692430     2     1    12    10
 0.0006579358     2     1    12    12
 0.9834409845     2     2     1     1
 0.0069561530     2     2     1     4
 0.0015337758     2     2     1     6
 0.0018676377     2     2     1     9
 -0.0056456205     2     2     1    10
 0.0014701779     2     2     1    12
 0.5275427418     2     2     3     3
 0.0698527793     2     2     3     7
 0.0216440786     2     2     3     8
 0.0069561530     2     2     4     1
 0.5515466718     2     2     4     4
 0.0331758492     2     2     4     6
 0.0204286077     2     2     4     9
 -0.0976039530     2     2     4    10
 0.0040329165     2     2     4    12
 0.5802639028     2     2     5     5
 -0.1241366441     2     2     5    11
 0.0015337758     2     2     6     1
 0.0331758492     2     2     6     4
 0.3012291647     2     2     6     6
 0.0579595700     2     2     6     9
 -0.0524682790     2     2     6    10
 0.0292194921     2     2     6    12
 0.0698527793     2     2     7     3
 0.2842485092     2     2     7     7
 0.0606896954     2     2     7     8
 0.0216440786     2     2     8     3
 0.0606896954     2     2     8     7
 0.4059476579     2     2     8     8
 0.0018676377     2     2     9     1
 0.0204286077     2     2     9     4
 0.0579595700     2     2     9     6
 0.4070028574     2     2     9     9
 -0.0145732785     2     2     9    10
 -0.0048328443     2     2     9    12
 -0.0056456205     2     2    10     1
 -0.0976039530     2     2    10     4
 -0.0524682790     2     2    10     6
 -0.0145732785     2     2    10     9
 0.4053131734     2     2    10    10
 -0.0289378034     2     2    10    12
 -0.1241366441     2     2    11     5
 0.4734114284     2     2    11    11
 0.0014701779     2     2    12     1
 0.0040329165     2     2    12     4
 0.0292194921     2     2    12     6
 -0.0048328443     2     2    12     9
 -0.0289378034     2     2    12    10
 0.4043522741     2     2    12    12
 -0.0026414912     2     3     1     7
 -0.0032520430     2     3     1     8
 -0.0309480964     2     3     3     1
 -0.5275427418     2     3     3     2
 -0.0022608365     2     3     3     4
 0.0656426522     2     3     3     6
 0.0705341111     2     3     3     9
 -0.0161757803     2     3     3    10
 0.0053624623     2     3     3    12
 0.0105692276     2     3     4     7
 0.0331454836     2     3     4     8
 -0.0339899898     2     3     6     7
 0.0000706022     2     3     6     8
 -0.0131145510     2     3     7     1
 -0.0698527793     2     3     7     2
 0.0003030006     2     3     7     4
 -0.0193575553     2     3     7     6
 -0.0006780926     2     3     7     9
 -0.0003801186     2     3     7    10
 0.0091831475     2     3     7    12
 -0.0116517852     2     3     8     1
 -0.0216440786     2     3     8     2
 0.0044512505     2     3     8     4
 0.0032080819     2     3     8     6
 -0.0280137261     2     3     8     9
 0.0264240062     2     3     8    10
 -0.0159618238     2     3     8    12
 -0.0161286125     2     3     9     7
 -0.0293301605     2     3     9     8
 0.0032557170     2     3    10     7
 0.0232705287     2     3    10     8
 0.0048766101     2     3    12     7
 -0.0220150004     2     3    12     8
 0.0685549388     2     4     1     1
 -0.0069561530     2     4     1     2
 0.0003866444     2     4     1     6
 -0.0004941503     2     4     1     9
 0.0042238831     2     4     1    10
 -0.0013416684     2     4     1    12
 0.0022608365     2     4     3     3
 0.0100733543     2     4     3     7
 0.0283485743     2     4     3     8
 -0.0359827231     2     4     4     1
 -0.5515466718     2     4     4     2
 0.0655397220     2     4     4     6
 0.0402413411     2     4     4     9
 -0.0235869188     2     4     4    10
 0.0546845720     2     4     4    12
 0.0046563897     2     4     5     5
 -0.0077702840     2     4     5    11
 -0.0072425503     2     4     6     1
 -0.0331758492     2     4     6     2
 -0.0097094719     2     4     6     6
 0.0037753428     2     4     6     9
 0.0214295301     2     4     6    10
 0.0015032044     2     4     6    12
 -0.0003030006     2     4     7     3
 -0.0124408174     2     4     7     7
 -0.0023720248     2     4     7     8
 -0.0044512505     2     4     8     3
 -0.0081484959     2     4     8     7
 -0.0052112147     2     4     8     8
 -0.0079068612     2     4     9     1
 -0.0204286077     2     4     9     2
 0.0034005144     2     4     9     6
 -0.0254980193     2     4     9     9
 0.0054165742     2     4     9    10
 0.0028655814     2     4     9    12
 0.0223316700     2     4    10     1
 0.0976039530     2     4    10     2
 0.0035509479     2     4    10     6
 -0.0091118471     2     4    10     9
 0.0214128080     2     4    10    10
 0.0158122610     2     4    10    12
 -0.0052823298     2     4    11     5
 0.0120752306     2     4    11    11
 -0.0059283340     2     4    12     1
 -0.0040329165     2     4    12     2
 -0.0028188629     2     4    12     6
 0.0031913371     2     4    12     9
 0.0294577033     2     4    12    10
 -0.0150768671     2     4    12    12
 0.0059286826     2     5     1    11
 -0.0026754510     2     5     4    11
 -0.0411010160     2     5     5     1
 -0.5802639028     2     5     5     2
 -0.0046563897     2     5     5     4
 0.0626098069     2     5     5     6
 0.0245146432     2     5     5     9
 -0.0259228592     2     5     5    10
 0.0156521723     2     5     5    12
 0.0244733302     2     5     6    11
 -0.0059162663     2     5     9    11
 -0.0108401792     2     5    10    11
 0.0288976304     2     5    11     1
 0.1241366441     2     5    11     2
 0.0052823298     2     5    11     4
 -0.0005706713     2     5    11     6
 -0.0230668862     2     5    11     9
 -0.0013844656     2     5    11    10
 -0.0115810813     2     5    11    12
 -0.0011014918     2     5    12    11
 -0.1438891779     2     6     1     1
 -0.0015337758     2     6     1     2
 -0.0003866444     2     6     1     4
 -0.0003039002     2     6     1     9
 0.0014825350     2     6     1    10
 -0.0004760518     2     6     1    12
 -0.0656426522     2     6     3     3
 -0.0144941047     2     6     3     7
 -0.0029499074     2     6     3     8
 -0.0070685344     2     6     4     1
 -0.0331758492     2     6     4     2
 -0.0655397220     2     6     4     4
 0.0003605118     2     6     4     9
 0.0176747767     2     6     4    10
 0.0040481556     2     6     4    12
 -0.0626098069     2     6     5     5
 0.0246607494     2     6     5    11
 -0.0017680440     2     6     6     1
 -0.3012291647     2     6     6     2
 0.0097094719     2     6     6     4
 -0.0055783593     2     6     6     9
 0.0069235873     2     6     6    10
 -0.0048342792     2     6     6    12
 0.0193575553     2     6     7     3
 -0.0085804142     2     6     7     7
 -0.0132942987     2     6     7     8
 -0.0032080819     2     6     8     3
 -0.0077693760     2     6     8     7
 -0.0263778521     2     6     8     8
 -0.0021432291     2     6     9     1
 -0.0579595700     2     6     9     2
 -0.0034005144     2     6     9     4
 -0.0212123394     2     6     9     9
 -0.0004992620     2     6     9    10
 0.0037008178     2     6     9    12
 0.0051694212     2     6    10     1
 0.0524682790     2     6    10     2
 -0.0035509479     2     6    10     4
 -0.0018134888     2     6    10     9
 -0.0232993681     2     6    10    10
 0.0056104388     2     6    10    12
 0.0005706713     2     6    11     5
 -0.0369214602     2     6    11    11
 -0.0014630983     2     6    12     1
 -0.0292194921     2     6    12     2
 0.0028188629     2     6    12     4
 0.0034033618     2     6    12     9
 0.0030015595     2     6    12    10
 -0.0235775373     2     6    12    12
 0.0026414912     2     7     1     3
 -0.0004646437     2     7     1     8
 -0.0096729946     2     7     3     1
 -0.0698527793     2     7     3     2
 -0.0100733543     2     7     3     4
 0.0144941047     2     7     3     6
 0.0149962470     2     7     3     9
 -0.0033954241     2     7     3    10
 0.0041459449     2     7     3    12
 -0.0105692276     2     7     4     3
 0.0056831247     2     7     4     8
 0.0339899898     2     7     6     3
 -0.0055480393     2     7     6     8
 -0.0048460541     2     7     7     1
 -0.2842485092     2     7     7     2
 0.0124408174     2     7     7     4
 0.0085804142     2     7     7     6
 -0.0011465387     2     7     7     9
 -0.0004263331     2     7     7    10
 0.0018507999     2     7     7    12
 -0.0042827460     2     7     8     1
 -0.0606896954     2     7     8     2
 0.0081484959     2     7     8     4
 0.0077693760     2     7     8     6
 0.0025032070     2     7     8     9
 -0.0001059535     2     7     8    10
 -0.0002056430     2     7     8    12
 0.0161286125     2     7     9     3
 -0.0038622755     2     7     9     8
 -0.0032557170     2     7    10     3
 0.0039782521     2     7    10     8
 -0.0048766101     2     7    12     3
 -0.0017824705     2     7    12     8
 0.0032520430     2     8     1     3
 0.0004646437     2     8     1     7
 -0.0077840070     2     8     3     1
 -0.0216440786     2     8     3     2
 -0.0283485743     2     8     3     4
 0.0029499074     2     8     3     6
 0.0009718527     2     8     3     9
 0.0029417106     2     8     3    10
 0.0057792536     2     8     3    12
 -0.0331454836     2     8     4     3
 -0.0056831247     2     8     4     7
 -0.0000706022     2     8     6     3
 0.0055480393     2     8     6     7