&FCI NORB= 14,NELEC= 10,MS2=0,
 ORBSYM=1,1,1,1,1,1,1,1,1,1,1,1,1,1
 ISYM=1,
&END
 0.9831516665     1     1     2     2
 0.0724251973     1     1     2     4
 -0.1818542931     1     1     2     6
 0.1469610114     1     1     2     9
 -0.0170078569     1     1     2    10
 0.1254760990     1     1     2    13
 0.8566377447     1     1     3     3
 -0.2267603941     1     1     3     7
 0.1503703929     1     1     3     8
 -0.3045116216     1     1     3    12
 0.0724251973     1     1     4     2
 0.9533411117     1     1     4     4
 0.1043757949     1     1     4     6
 -0.1564171759     1     1     4     9
 -0.3599520603     1     1     4    10
 0.0815826989     1     1     4    13
 1.0082756764     1     1     5     5
 0.4560646119     1     1     5    11
 -0.1818542931     1     1     6     2
 0.1043757949     1     1     6     4
 0.3990692750     1     1     6     6
 -0.1605438853     1     1     6     9
 -0.0848437353     1     1     6    10
 -0.0589176025     1     1     6    13
 -0.2267603941     1     1     7     3
 0.3924270003     1     1     7     7
 -0.1544001487     1     1     7     8
 0.2065781271     1     1     7    12
 0.1503703929     1     1     8     3
 -0.1544001487     1     1     8     7
 0.5538717221     1     1     8     8
 -0.1089739135     1     1     8    12
 0.1469610114     1     1     9     2
 -0.1564171759     1     1     9     4
 -0.1605438853     1     1     9     6
 0.5746011009     1     1     9     9
 0.1223798598     1     1     9    10
 0.0005544190     1     1     9    13
 -0.0170078569     1     1    10     2
 -0.3599520603     1     1    10     4
 -0.0848437353     1     1    10     6
 0.1223798598     1     1    10     9
 0.7946275851     1     1    10    10
 -0.0480892259     1     1    10    13
 0.4560646119     1     1    11     5
 0.9483862187     1     1    11    11
 -0.3045116216     1     1    12     3
 0.2065781271     1     1    12     7
 -0.1089739135     1     1    12     8
 0.7471626326     1     1    12    12
 0.1254760990     1     1    13     2
 0.0815826989     1     1    13     4
 -0.0589176025     1     1    13     6
 0.0005544190     1     1    13     9
 -0.0480892259     1     1    13    10
 0.5637784338     1     1    13    13
 0.5155739857     1     1    14    14
 -0.9831516665     1     2     2     1
 -0.0068373836     1     2     2     4
 -0.0026034761     1     2     2     6
 0.0044872581     1     2     2     9
 0.0089807872     1     2     2    10
 -0.0007753135     1     2     2    13
 0.0297941463     1     2     3     3
 -0.0165813251     1     2     3     7
 0.0165198027     1     2     3     8
 -0.0333728815     1     2     3    12
 -0.0724251973     1     2     4     1
 0.0355377085     1     2     4     4
 0.0096058005     1     2     4     6
 -0.0169326998     1     2     4     9
 -0.0359510861     1     2     4    10
 0.0049843702     1     2     4    13
 0.0412834951     1     2     5     5
 0.0480199591     1     2     5    11
 0.1818542931     1     2     6     1
 0.0096408783     1     2     6     4
 0.0025945174     1     2     6     6
 -0.0049134032     1     2     6     9
 -0.0101994381     1     2     6    10
 0.0013349068     1     2     6    13
 -0.0132181049     1     2     7     3
 0.0073875523     1     2     7     7
 -0.0074586518     1     2     7     8
 0.0153539589     1     2     7    12
 0.0116265603     1     2     8     3
 -0.0064828253     1     2     8     7
 0.0061678096     1     2     8     8
 -0.0127338174     1     2     8    12
 -0.1469610114     1     2     9     1
 -0.0143139438     1     2     9     4
 -0.0039667200     1     2     9     6
 0.0067858499     1     2     9     9
 0.0158270869     1     2     9    10
 -0.0025901037     1     2     9    13
 0.0170078569     1     2    10     1
 -0.0239937713     1     2    10     4
 -0.0061593944     1     2    10     6
 0.0119775735     1     2    10     9
 0.0266620146     1     2    10    10
 -0.0052676988     1     2    10    13
 0.0318123480     1     2    11     5
 0.0405102855     1     2    11    11
 -0.0205651054     1     2    12     3
 0.0119173736     1     2    12     7
 -0.0113423733     1     2    12     8
 0.0253902293     1     2    12    12
 -0.1254760990     1     2    13     1
 0.0027529610     1     2    13     4
 0.0006574726     1     2    13     6
 -0.0017458668     1     2    13     9
 -0.0045344722     1     2    13    10
 0.0012090683     1     2    13    13
 -0.0004427654     1     2    14    14
 -0.0031462211     1     3     2     7
 0.0046790045     1     3     2     8
 -0.0124091216     1     3     2    12
 -0.8566377447     1     3     3     1
 -0.0297941463     1     3     3     2
 -0.0103166734     1     3     3     4
 0.0048210854     1     3     3     6
 0.0007820990     1     3     3     9
 0.0050315426     1     3     3    10
 -0.0115745800     1     3     3    13
 0.0018241091     1     3     4     7
 -0.0060798092     1     3     4     8
 -0.0022093938     1     3     4    12
 -0.0059601222     1     3     5    14
 -0.0025076288     1     3     6     7
 -0.0003582730     1     3     6     8
 -0.0017768229     1     3     6    12
 0.2267603941     1     3     7     1
 0.0132181049     1     3     7     2
 0.0045832660     1     3     7     4
 -0.0061493916     1     3     7     6
 0.0033834064     1     3     7     9
 -0.0010256573     1     3     7    10
 0.0051963148     1     3     7    13
 -0.1503703929     1     3     8     1
 -0.0116265603     1     3     8     2
 -0.0037969531     1     3     8     4
 0.0048199179     1     3     8     6
 -0.0088485313     1     3     8     9
 -0.0032492649     1     3     8    10
 -0.0057438506     1     3     8    13
 0.0022591338     1     3     9     7
 -0.0049096889     1     3     9     8
 0.0054446583     1     3     9    12
 -0.0011637671     1     3    10     7
 0.0021819582     1     3    10     8
 -0.0041902329     1     3    10    12
 -0.0000647447     1     3    11    14
 0.3045116216     1     3    12     1
 0.0205651054     1     3    12     2
 0.0071782272     1     3    12     4
 -0.0082192780     1     3    12     6
 0.0059356911     1     3    12     9
 -0.0078639990     1     3    12    10
 0.0093929584     1     3    12    13
 -0.0008417692     1     3    13     7
 -0.0006626346     1     3    13     8
 -0.0037406618     1     3    13    12
 0.0009866530     1     3    14     5
 0.0082689835     1     3    14    11
 -0.0724251973     1     4     2     1
 0.0068373836     1     4     2     2
 -0.0001634025     1     4     2     6
 -0.0024652461     1     4     2     9
 -0.0114940287     1     4     2    10
 0.0022051447     1     4     2    13
 0.0103166734     1     4     3     3
 -0.0027367882     1     4     3     7
 -0.0024094761     1     4     3     8
 -0.0095197171     1     4     3    12
 -0.9533411117     1     4     4     1
 -0.0355377085     1     4     4     2
 0.0109782157     1     4     4     6
 -0.0129620455     1     4     4     9
 -0.0061602014     1     4     4    10
 0.0004310656     1     4     4    13
 0.0139312539     1     4     5     5
 0.0152692673     1     4     5    11
 -0.1043757949     1     4     6     1
 -0.0096408783     1     4     6     2
 0.0056450139     1     4     6     6
 -0.0052140523     1     4     6     9
 -0.0023221521     1     4     6    10
 -0.0011181479     1     4     6    13
 -0.0045832660     1     4     7     3
 0.0039035523     1     4     7     7
 -0.0017070257     1     4     7     8
 0.0067959055     1     4     7    12
 0.0037969531     1     4     8     3
 -0.0041396054     1     4     8     7
 0.0062425721     1     4     8     8
 -0.0109135160     1     4     8    12
 0.1564171759     1     4     9     1
 0.0143139438     1     4     9     2
 -0.0070464488     1     4     9     6
 0.0111176980     1     4     9     9
 -0.0002236010     1     4     9    10
 0.0035339804     1     4     9    13
 0.3599520603     1     4    10     1
 0.0239937713     1     4    10     2
 -0.0122397607     1     4    10     6
 0.0104167343     1     4    10     9
 0.0045758273     1     4    10    10
 0.0096044126     1     4    10    13
 0.0109527674     1     4    11     5
 0.0135614004     1     4    11    11
 -0.0071782272     1     4    12     3
 0.0035421582     1     4    12     7
 -0.0028161778     1     4    12     8
 0.0056084718     1     4    12    12
 -0.0815826989     1     4    13     1
 -0.0027529610     1     4    13     2
 0.0003481327     1     4    13     6
 0.0018279155     1     4    13     9
 0.0091066113     1     4    13    10
 0.0004459862     1     4    13    13
 0.0061547344     1     4    14    14
 0.0156560804     1     5     2    11
 -0.0069226365     1     5     3    14
 0.0042396900     1     5     4    11
 -1.0082756764     1     5     5     1
 -0.0412834951     1     5     5     2
 -0.0139312539     1     5     5     4
 0.0103247846     1     5     5     6
 -0.0124685175     1     5     5     9
 0.0093437069     1     5     5    10
 -0.0124217489     1     5     5    13
 0.0002423474     1     5     6    11
 0.0013941786     1     5     7    14
 -0.0006912483     1     5     8    14
 0.0048118024     1     5     9    11
 -0.0025355895     1     5    10    11
 -0.4560646119     1     5    11     1
 -0.0318123480     1     5    11     2
 -0.0109527674     1     5    11     4
 0.0131373183     1     5    11     6
 -0.0108393177     1     5    11     9
 0.0078220597     1     5    11    10
 -0.0144035303     1     5    11    13
 0.0008737264     1     5    12    14
 0.0005768352     1     5    13    11
 -0.0009866530     1     5    14     3
 -0.0018940867     1     5    14     7
 0.0023605781     1     5    14     8
 -0.0059493948     1     5    14    12
 0.1818542931     1     6     2     1
 0.0026034761     1     6     2     2
 0.0001634025     1     6     2     4
 -0.0009461013     1     6     2     9
 -0.0039089858     1     6     2    10
 0.0006360477     1     6     2    13
 -0.0048210854     1     6     3     3
 0.0036414675     1     6     3     7
 -0.0051754511     1     6     3     8
 0.0064959491     1     6     3    12
 -0.1043757949     1     6     4     1
 -0.0096058005     1     6     4     2
 -0.0109782157     1     6     4     4
 0.0018802555     1     6     4     9
 0.0099602820     1     6     4    10
 -0.0015207558     1     6     4    13
 -0.0103247846     1     6     5     5
 -0.0127322690     1     6     5    11
 -0.3990692750     1     6     6     1
 -0.0025945174     1     6     6     2
 -0.0056450139     1     6     6     4
 0.0013456470     1     6     6     9
 0.0051271427     1     6     6    10
 -0.0011327915     1     6     6    13
 0.0061493916     1     6     7     3
 -0.0029242304     1     6     7     7
 0.0034437091     1     6     7     8
 -0.0063977217     1     6     7    12
 -0.0048199179     1     6     8     3
 0.0020190535     1     6     8     7
 -0.0012169012     1     6     8     8
 0.0034138935     1     6     8    12
 0.1605438853     1     6     9     1
 0.0039667200     1     6     9     2
 0.0070464488     1     6     9     4
 -0.0002589250     1     6     9     9
 -0.0075549185     1     6     9    10
 0.0021357844     1     6     9    13
 0.0848437353     1     6    10     1
 0.0061593944     1     6    10     2
 0.0122397607     1     6    10     4
 -0.0032865100     1     6    10     9
 -0.0116667374     1     6    10    10
 0.0049317935     1     6    10    13
 -0.0131373183     1     6    11     5
 -0.0158415127     1     6    11    11
 0.0082192780     1     6    12     3
 -0.0047204101     1     6    12     7
 0.0047220554     1     6    12     8
 -0.0103657884     1     6    12    12
 0.0589176025     1     6    13     1
 -0.0006574726     1     6    13     2
 -0.0003481327     1     6    13     4
 0.0007903793     1     6    13     9
 0.0033904189     1     6    13    10
 -0.0000345456     1     6    13    13
 0.0019142088     1     6    14    14
 0.0031462211     1     7     2     3
 -0.0009685275     1     7     2     8
 0.0032755797     1     7     2    12
 0.2267603941     1     7     3     1
 0.0165813251     1     7     3     2
 0.0027367882     1     7     3     4
 -0.0036414675     1     7     3     6
 0.0011108609     1     7     3     9
 0.0001729447     1     7     3    10
 0.0060590805     1     7     3    13
 -0.0018241091     1     7     4     3
 0.0024108499     1     7     4     8
 0.0031790393     1     7     4    12
 0.0033142382     1     7     5    14
 0.0025076288     1     7     6     3
 0.0014237401     1     7     6     8
 -0.0016645566     1     7     6    12
 -0.3924270003     1     7     7     1
 -0.0073875523     1     7     7     2
 -0.0039035523     1     7     7     4
 0.0029242304     1     7     7     6
 -0.0012310541     1     7     7     9
 0.0018547142     1     7     7    10
 -0.0030387776     1     7     7    13
 0.1544001487     1     7     8     1
 0.0064828253     1     7     8     2
 0.0041396054     1     7     8     4
 -0.0020190535     1     7     8     6
 0.0037122727     1     7     8     9
 -0.0002863051     1     7     8    10
 0.0034229324     1     7     8    13
 -0.0022591338     1     7     9     3
 0.0014729674     1     7     9     8
 -0.0004986738     1     7     9    12
 0.0011637671     1     7    10     3
 -0.0005861055     1     7    10     8
 0.0009920730     1     7    10    12
 0.0000368379     1     7    11    14
 -0.2065781271     1     7    12     1
 -0.0119173736     1     7    12     2
 -0.0035421582     1     7    12     4
 0.0047204101     1     7    12     6
 -0.0035904893     1     7    12     9
 0.0037502497     1     7    12    10
 -0.0051262436     1     7    12    13
 0.0008417692     1     7    13     3
 0.0007734704     1     7    13     8
 0.0011458447     1     7    13    12
 0.0018940867     1     7    14     5
 -0.0016980805     1     7    14    11
 -0.0046790045     1     8     2     3
 0.0009685275     1     8     2     7
 -0.0012691446     1     8     2    12
 -0.1503703929     1     8     3     1
 -0.0165198027     1     8     3     2
 0.0024094761     1     8     3     4
 0.0051754511     1     8     3     6
 -0.0038964266     1     8     3     9
 -0.0053144605     1     8     3    10
 -0.0051727204     1     8     3    13
 0.0060798092     1     8     4     3
 -0.0024108499     1     8     4     7
 -0.0079576264     1     8     4    12
 -0.0030343048     1     8     5    14
 0.0003582730     1     8     6     3
 -0.0014237401     1     8     6     7
 -0.0013248147     1     8     6    12
 0.1544001487     1     8     7     1
 0.0074586518     1     8     7     2
 0.0017070257     1     8     7     4
 -0.0034437091     1     8     7     6
 0.0022449743     1     8     7     9
 0.0003132535     1     8     7    10
 0.0026505340     1     8     7    13
 -0.5538717221     1     8     8     1
 -0.0061678096     1     8     8     2
 -0.0062425721     1     8     8     4
 0.0012169012     1     8     8     6
 -0.0023892975     1     8     8     9
 0.0024074144     1     8     8    10
 -0.0034503813     1     8     8    13
 0.0049096889     1     8     9     3
 -0.0014729674     1     8     9     7
 -0.0024067331     1     8     9    12
 -0.0021819582     1     8    10     3
 0.0005861055     1     8    10     7
 0.0003133578     1     8    10    12
 -0.0001068307     1     8    11    14
 0.1089739135     1     8    12     1
 0.0113423733     1     8    12     2
 0.0028161778     1     8    12     4
 -0.0047220554     1     8    12     6
 0.0037342209     1     8    12     9
 -0.0029291809     1     8    12    10
 0.0048707818     1     8    12    13
 0.0006626346     1     8    13     3
 -0.0007734704     1     8    13     7
 -0.0025912424     1     8    13    12
 -0.0023605781     1     8    14     5
 0.0009028050     1     8    14    11
 -0.1469610114     1     9     2     1
 -0.0044872581     1     9     2     2
 0.0024652461     1     9     2     4
 0.0009461013     1     9     2     6
 0.0037514217     1     9     2    10
 -0.0008349411     1     9     2    13
 -0.0007820990     1     9     3     3
 -0.0011108609     1     9     3     7
 0.0038964266     1     9     3     8
 -0.0005543147     1     9     3    12
 0.1564171759     1     9     4     1
 0.0169326998     1     9     4     2
 0.0129620455     1     9     4     4
 -0.0018802555     1     9     4     6
 -0.0106655771     1     9     4    10
 0.0018298116     1     9     4    13
 0.0124685175     1     9     5     5
 0.0153787666     1     9     5    11
 0.1605438853     1     9     6     1
 0.0049134032     1     9     6     2
 0.0052140523     1     9     6     4
 -0.0013456470     1     9     6     6
 -0.0042670692     1     9     6    10
 0.0013460193     1     9     6    13
 -0.0033834064     1     9     7     3
 0.0012310541     1     9     7     7
 -0.0022449743     1     9     7     8
 0.0030842600     1     9     7    12
 0.0088485313     1     9     8     3
 -0.0037122727     1     9     8     7
 0.0023892975     1     9     8     8
 -0.0061381780     1     9     8    12
 -0.5746011009     1     9     9     1
 -0.0067858499     1     9     9     2
 -0.0111176980     1     9     9     4
 0.0002589250     1     9     9     6
 0.0116241789     1     9     9    10
 -0.0034437485     1     9     9    13
 -0.1223798598     1     9    10     1
 -0.0119775735     1     9    10     2
 -0.0104167343     1     9    10     4
 0.0032865100     1     9    10     6
 0.0090821490     1     9    10    10
 -0.0068410393     1     9    10    13
 0.0108393177     1     9    11     5
 0.0134148487     1     9    11    11
 -0.0059356911     1     9    12     3
 0.0035904893     1     9    12     7
 -0.0037342209     1     9    12     8
 0.0085162637     1     9    12    12
 -0.0005544190     1     9    13     1
 0.0017458668     1     9    13     2
 -0.0018279155     1     9    13     4
 -0.0007903793     1     9    13     6
 -0.0031229809     1     9    13    10
 -0.0001893563     1     9    13    13
 -0.0031065777     1     9    14    14
 0.0170078569     1    10     2     1
 -0.0089807872     1    10     2     2
 0.0114940287     1    10     2     4
 0.0039089858     1    10     2     6
 -0.0037514217     1    10     2     9
 -0.0007541635     1    10     2    13
 -0.0050315426     1    10     3     3
 -0.0001729447     1    10     3     7
 0.0053144605     1    10     3     8
 0.0036388226     1    10     3    12
 0.3599520603     1    10     4     1
 0.0359510861     1    10     4     2
 0.0061602014     1    10     4     4
 -0.0099602820     1    10     4     6
 0.0106655771     1    10     4     9
 0.0007135249     1    10     4    13
 -0.0093437069     1    10     5     5
 -0.0100500706     1    10     5    11
 0.0848437353     1    10     6     1
 0.0101994381     1    10     6     2
 0.0023221521     1    10     6     4
 -0.0051271427     1    10     6     6
 0.0042670692     1    10     6     9
 0.0015406478     1    10     6    13
 0.0010256573     1    10     7     3
 -0.0018547142     1    10     7     7
 -0.0003132535     1    10     7     8
 -0.0027478916     1    10     7    12
 0.0032492649     1    10     8     3
 0.0002863051     1    10     8     7
 -0.0024074144     1    10     8     8
 0.0032184888     1    10     8    12
 -0.1223798598     1    10     9     1
 -0.0158270869     1    10     9     2
 0.0002236010     1    10     9     4
 0.0075549185     1    10     9     6
 -0.0116241789     1    10     9     9
 -0.0037193548     1    10     9    13
 -0.7946275851     1    10    10     1
 -0.0266620146     1    10    10     2
 -0.0045758273     1    10    10     4
 0.0116667374     1    10    10     6
 -0.0090821490     1    10    10     9
 -0.0109281068     1    10    10    13
 -0.0078220597     1    10    11     5
 -0.0093910033     1    10    11    11
 0.0078639990     1    10    12     3
 -0.0037502497     1    10    12     7
 0.0029291809     1    10    12     8
 -0.0058641902     1    10    12    12
 0.0480892259     1    10    13     1
 0.0045344722     1    10    13     2
 -0.0091066113     1    10    13     4
 -0.0033904189     1    10    13     6
 0.0031229809     1    10    13     9
 -0.0013292703     1    10    13    13
 -0.0060462773     1    10    14    14
 -0.0156560804     1    11     2     5
 -0.0079914926     1    11     3    14
 -0.0042396900     1    11     4     5
 -0.4560646119     1    11     5     1
 -0.0480199591     1    11     5     2
 -0.0152692673     1    11     5     4
 0.0127322690     1    11     5     6
 -0.0153787666     1    11     5     9
 0.0100500706     1    11     5    10
 -0.0147947734     1    11     5    13
 -0.0002423474     1    11     6     5
 0.0017459617     1    11     7    14
 -0.0010190980     1    11     8    14
 -0.0048118024     1    11     9     5
 0.0025355895     1    11    10     5
 -0.9483862187     1    11    11     1
 -0.0405102855     1    11    11     2
 -0.0135614004     1    11    11     4
 0.0158415127     1    11    11     6
 -0.0134148487     1    11    11     9
 0.0093910033     1    11    11    10
 -0.0175172035     1    11    11    13
 0.0010874214     1    11    12    14
 -0.0005768352     1    11    13     5
 -0.0082689835     1    11    14     3
 0.0016980805     1    11    14     7
 -0.0009028050     1    11    14     8
 0.0009096992     1    11    14    12
 0.0124091216     1    12     2     3
 -0.0032755797     1    12     2     7
 0.0012691446     1    12     2     8
 0.3045116216     1    12     3     1
 0.0333728815     1    12     3     2
 0.0095197171     1    12     3     4
 -0.0064959491     1    12     3     6
 0.0005543147     1    12     3     9
 -0.0036388226     1    12     3    10
 0.0131648308     1    12     3    13
 0.0022093938     1    12     4     3
 -0.0031790393     1    12     4     7
 0.0079576264     1    12     4     8
 0.0068794584     1    12     5    14
 0.0017768229     1    12     6     3
 0.0016645566     1    12     6     7
 0.0013248147     1    12     6     8
 -0.2065781271     1    12     7     1
 -0.0153539589     1    12     7     2
 -0.0067959055     1    12     7     4
 0.0063977217     1    12     7     6
 -0.0030842600     1    12     7     9
 0.0027478916     1    12     7    10
 -0.0062925195     1    12     7    13
 0.1089739135     1    12     8     1
 0.0127338174     1    12     8     2
 0.0109135160     1    12     8     4
 -0.0034138935     1    12     8     6
 0.0061381780     1    12     8     9
 -0.0032184888     1    12     8    10
 0.0074731016     1    12     8    13
 -0.0054446583     1    12     9     3
 0.0004986738     1    12     9     7
 0.0024067331     1    12     9     8
 0.0041902329     1    12    10     3
 -0.0009920730     1    12    10     7
 -0.0003133578     1    12    10     8
 0.0001935052     1    12    11    14
 -0.7471626326     1    12    12     1
 -0.0253902293     1    12    12     2
 -0.0056084718     1    12    12     4
 0.0103657884     1    12    12     6
 -0.0085162637     1    12    12     9
 0.0058641902     1    12    12    10
 -0.0105406876     1    12    12    13
 0.0037406618     1    12    13     3
 -0.0011458447     1    12    13     7
 0.0025912424     1    12    13     8
 0.0059493948     1    12    14     5
 -0.0009096992     1    12    14    11
 -0.1254760990     1    13     2     1
 0.0007753135     1    13     2     2
 -0.0022051447     1    13     2     4
 -0.0006360477     1    13     2     6
 0.0008349411     1    13     2     9
 0.0007541635     1    13     2    10
 0.0115745800     1    13     3     3
 -0.0060590805     1    13     3     7
 0.0051727204     1    13     3     8
 -0.0131648308     1    13     3    12
 -0.0815826989     1    13     4     1
 -0.0049843702     1    13     4     2
 -0.0004310656     1    13     4     4
 0.0015207558     1    13     4     6
 -0.0018298116     1    13     4     9
 -0.0007135249     1    13     4    10
 0.0124217489     1    13     5     5
 0.0147947734     1    13     5    11
 0.0589176025     1    13     6     1
 -0.0013349068     1    13     6     2
 0.0011181479     1    13     6     4
 0.0011327915     1    13     6     6
 -0.0013460193     1    13     6     9
 -0.0015406478     1    13     6    10
 -0.0051963148     1    13     7     3
 0.0030387776     1    13     7     7
 -0.0026505340     1    13     7     8
 0.0062925195     1    13     7    12
 0.0057438506     1    13     8     3
 -0.0034229324     1    13     8     7
 0.0034503813     1    13     8     8
 -0.0074731016     1    13     8    12
 -0.0005544190     1    13     9     1
 0.0025901037     1    13     9     2
 -0.0035339804     1    13     9     4
 -0.0021357844     1    13     9     6
 0.0034437485     1    13     9     9
 0.0037193548     1    13     9    10
 0.0480892259     1    13    10     1
 0.0052676988     1    13    10     2
 -0.0096044126     1    13    10     4
 -0.0049317935     1    13    10     6
 0.0068410393     1    13    10     9
 0.0109281068     1    13    10    10
 0.0144035303     1    13    11     5
 0.0175172035     1    13    11    11
 -0.0093929584     1    13    12     3
 0.0051262436     1    13    12     7
 -0.0048707818     1    13    12     8
 0.0105406876     1    13    12    12
 -0.5637784338     1    13    13     1
 -0.0012090683     1    13    13     2
 -0.0004459862     1    13    13     4
 0.0000345456     1    13    13     6
 0.0001893563     1    13    13     9
 0.0013292703     1    13    13    10
 0.0007896024     1    13    14    14
 0.0069226365     1    14     3     5
 0.0079914926     1    14     3    11
 0.0059601222     1    14     5     3
 -0.0033142382     1    14     5     7
 0.0030343048     1    14     5     8
 -0.0068794584     1    14     5    12
 -0.0013941786     1    14     7     5
 -0.0017459617     1    14     7    11
 0.0006912483     1    14     8     5
 0.0010190980     1    14     8    11
 0.0000647447     1    14    11     3
 -0.0000368379     1    14    11     7
 0.0001068307     1    14    11     8
 -0.0001935052     1    14    11    12
 -0.0008737264     1    14    12     5
 -0.0010874214     1    14    12    11
 -0.5155739857     1    14    14     1
 0.0004427654     1    14    14     2
 -0.0061547344     1    14    14     4
 -0.0019142088     1    14    14     6
 0.0031065777     1    14    14     9
 0.0060462773     1    14    14    10
 -0.0007896024     1    14    14    13
 -0.9831516665     2     1     1     2
 -0.0724251973     2     1     1     4
 0.1818542931     2     1     1     6
 -0.1469610114     2     1     1     9
 0.0170078569     2     1     1    10
 -0.1254760990     2     1     1    13
 0.0297941463     2     1     3     3
 -0.0132181049     2     1     3     7
 0.0116265603     2     1     3     8
 -0.0205651054     2     1     3    12
 -0.0068373836     2     1     4     2
 0.0355377085     2     1     4     4
 0.0096408783     2     1     4     6
 -0.0143139438     2     1     4     9
 -0.0239937713     2     1     4    10
 0.0027529610     2     1     4    13
 0.0412834951     2     1     5     5
 0.0318123480     2     1     5    11
 -0.0026034761     2     1     6     2
 0.0096058005     2     1     6     4
 0.0025945174     2     1     6     6
 -0.0039667200     2     1     6     9
 -0.0061593944     2     1     6    10
 0.0006574726     2     1     6    13
 -0.0165813251     2     1     7     3
 0.0073875523     2     1     7     7
 -0.0064828253     2     1     7     8
 0.0119173736     2     1     7    12
 0.0165198027     2     1     8     3
 -0.0074586518     2     1     8     7
 0.0061678096     2     1     8     8
 -0.0113423733     2     1     8    12
 0.0044872581     2     1     9     2
 -0.0169326998     2     1     9     4
 -0.0049134032     2     1     9     6
 0.0067858499     2     1     9     9
 0.0119775735     2     1     9    10
 -0.0017458668     2     1     9    13
 0.0089807872     2     1    10     2
 -0.0359510861     2     1    10     4
 -0.0101994381     2     1    10     6
 0.0158270869     2     1    10     9
 0.0266620146     2     1    10    10
 -0.0045344722     2     1    10    13
 0.0480199591     2     1    11     5
 0.0405102855     2     1    11    11
 -0.0333728815     2     1    12     3
 0.0153539589     2     1    12     7
 -0.0127338174     2     1    12     8
 0.0253902293     2     1    12    12
 -0.0007753135     2     1    13     2
 0.0049843702     2     1    13     4
 0.0013349068     2     1    13     6
 -0.0025901037     2     1    13     9
 -0.0052676988     2     1    13    10
 0.0012090683     2     1    13    13
 -0.0004427654     2     1    14    14
 0.9831516665     2     2     1     1
 0.0068373836     2     2     1     4
 0.0026034761     2     2     1     6
 -0.0044872581     2     2     1     9
 -0.0089807872     2     2     1    10
 0.0007753135     2     2     1    13
 0.5247024925     2     2     3     3
 -0.0862154935     2     2     3     7
 0.0314563064     2     2     3     8
 -0.1008482082     2     2     3    12
 0.0068373836     2     2     4     1
 0.5529744718     2     2     4     4
 0.0429936592     2     2     4     6
 -0.0513616543     2     2     4     9
 -0.1165139788     2     2     4    10
 0.0344341990     2     2     4    13
 0.5842678320     2     2     5     5
 0.1480615937     2     2     5    11
 0.0026034761     2     2     6     1
 0.0429936592     2     2     6     4
 0.3311549230     2     2     6     6
 -0.0786040238     2     2     6     9
 -0.0404403669     2     2     6    10
 -0.0216719109     2     2     6    13
 -0.0862154935     2     2     7     3
 0.3275520740     2     2     7     7
 -0.0854931855     2     2     7     8
 0.0934938803     2     2     7    12
 0.0314563064     2     2     8     3
 -0.0854931855     2     2     8     7
 0.4729112460     2     2     8     8
 -0.0223950250     2     2     8    12
 -0.0044872581     2     2     9     1
 -0.0513616543     2     2     9     4
 -0.0786040238     2     2     9     6
 0.4704492244     2     2     9     9
 0.0243524977     2     2     9    10
 -0.0107247534     2     2     9    13
 -0.0089807872     2     2    10     1
 -0.1165139788     2     2    10     4
 -0.0404403669     2     2    10     6
 0.0243524977     2     2    10     9