&FCI NORB=  6,NELEC= 10,MS2=0,
 ORBSYM=1,1,1,1,1,1
 ISYM=1,
&END
 0.9828832405     1     1     2     2
 0.0716493478     1     1     2     4
 -0.1426188755     1     1     2     6
 0.8561020969     1     1     3     3
 0.0716493478     1     1     4     2
 0.9526298688     1     1     4     4
 0.0755715948     1     1     4     6
 1.0053472257     1     1     5     5
 -0.1426188755     1     1     6     2
 0.0755715948     1     1     6     4
 0.3990942243     1     1     6     6
 -0.9828832405     1     2     2     1
 -0.0068313834     1     2     2     4
 -0.0013615943     1     2     2     6
 0.0296970079     1     2     3     3
 -0.0716493478     1     2     4     1
 0.0353812608     1     2     4     4
 0.0084954421     1     2     4     6
 0.0407938261     1     2     5     5
 0.1426188755     1     2     6     1
 0.0077822173     1     2     6     4
 0.0029168989     1     2     6     6
 -0.8561020969     1     3     3     1
 -0.0296970079     1     3     3     2
 -0.0104352784     1     3     3     4
 0.0048334435     1     3     3     6
 -0.0716493478     1     4     2     1
 0.0068313834     1     4     2     2
 0.0001762042     1     4     2     6
 0.0104352784     1     4     3     3
 -0.9526298688     1     4     4     1
 -0.0353812608     1     4     4     2
 0.0107060546     1     4     4     6
 0.0139513293     1     4     5     5
 -0.0755715948     1     4     6     1
 -0.0077822173     1     4     6     2
 0.0054235578     1     4     6     6
 -1.0053472257     1     5     5     1
 -0.0407938261     1     5     5     2
 -0.0139513293     1     5     5     4
 0.0101937890     1     5     5     6
 0.1426188755     1     6     2     1
 0.0013615943     1     6     2     2
 -0.0001762042     1     6     2     4
 -0.0048334435     1     6     3     3
 -0.0755715948     1     6     4     1
 -0.0084954421     1     6     4     2
 -0.0107060546     1     6     4     4
 -0.0101937890     1     6     5     5
 -0.3990942243     1     6     6     1
 -0.0029168989     1     6     6     2
 -0.0054235578     1     6     6     4
 -0.9828832405     2     1     1     2
 -0.0716493478     2     1     1     4
 0.1426188755     2     1     1     6
 0.0296970079     2     1     3     3
 -0.0068313834     2     1     4     2
 0.0353812608     2     1     4     4
 0.0077822173     2     1     4     6
 0.0407938261     2     1     5     5
 -0.0013615943     2     1     6     2
 0.0084954421     2     1     6     4
 0.0029168989     2     1     6     6
 0.9828832405     2     2     1     1
 0.0068313834     2     2     1     4
 0.0013615943     2     2     1     6
 0.5234540745     2     2     3     3
 0.0068313834     2     2     4     1
 0.5521091044     2     2     4     4
 0.0308691055     2     2     4     6
 0.5825920922     2     2     5     5
 0.0013615943     2     2     6     1
 0.0308691055     2     2     6     4
 0.3353077825     2     2     6     6
 -0.0296970079     2     3     3     1
 -0.5234540745     2     3     3     2
 -0.0030539098     2     3     3     4
 0.0669702028     2     3     3     6
 0.0716493478     2     4     1     1
 -0.0068313834     2     4     1     2
 -0.0001762042     2     4     1     6
 0.0030539098     2     4     3     3
 -0.0353812608     2     4     4     1
 -0.5521091044     2     4     4     2
 0.0651654878     2     4     4     6
 0.0067002344     2     4     5     5
 -0.0084954421     2     4     6     1
 -0.0308691055     2     4     6     2
 -0.0124946098     2     4     6     6
 -0.0407938261     2     5     5     1
 -0.5825920922     2     5     5     2
 -0.0067002344     2     5     5     4
 0.0636093415     2     5     5     6
 -0.1426188755     2     6     1     1
 -0.0013615943     2     6     1     2
 0.0001762042     2     6     1     4
 -0.0669702028     2     6     3     3
 -0.0077822173     2     6     4     1
 -0.0308691055     2     6     4     2
 -0.0651654878     2     6     4     4
 -0.0636093415     2     6     5     5
 -0.0029168989     2     6     6     1
 -0.3353077825     2     6     6     2
 0.0124946098     2     6     6     4
 -0.8561020969     3     1     1     3
 -0.0296970079     3     1     2     3
 -0.0104352784     3     1     4     3
 0.0048334435     3     1     6     3
 -0.0296970079     3     2     1     3
 -0.5234540745     3     2     2     3
 -0.0030539098     3     2     4     3
 0.0669702028     3     2     6     3
 0.8561020969     3     3     1     1
 0.0296970079     3     3     1     2
 0.0104352784     3     3     1     4
 -0.0048334435     3     3     1     6
 0.0296970079     3     3     2     1
 0.5234540745     3     3     2     2
 0.0030539098     3     3     2     4
 -0.0669702028     3     3     2     6
 0.0104352784     3     3     4     1
 0.0030539098     3     3     4     2
 0.5583058555     3     3     4     4
 0.0352603703     3     3     4     6
 0.5842722197     3     3     5     5
 -0.0048334435     3     3     6     1
 -0.0669702028     3     3     6     2
 0.0352603703     3     3     6     4
 0.3385861994     3     3     6     6
 -0.0104352784     3     4     1     3
 -0.0030539098     3     4     2     3
 -0.5583058555     3     4     4     3
 -0.0352603703     3     4     6     3
 -0.5842722197     3     5     5     3
 0.0048334435     3     6     1     3
 0.0669702028     3     6     2     3
 -0.0352603703     3     6     4     3
 -0.3385861994     3     6     6     3
 -0.0716493478     4     1     1     2
 -0.9526298688     4     1     1     4
 -0.0755715948     4     1     1     6
 0.0068313834     4     1     2     2
 -0.0353812608     4     1     2     4
 -0.0077822173     4     1     2     6
 0.0104352784     4     1     3     3
 0.0139513293     4     1     5     5
 0.0001762042     4     1     6     2
 0.0107060546     4     1     6     4
 0.0054235578     4     1     6     6
 0.0716493478     4     2     1     1
 -0.0353812608     4     2     1     4
 -0.0084954421     4     2     1     6
 -0.0068313834     4     2     2     1
 -0.5521091044     4     2     2     4
 -0.0308691055     4     2     2     6
 0.0030539098     4     2     3     3
 0.0067002344     4     2     5     5
 -0.0001762042     4     2     6     1
 0.0651654878     4     2     6     4
 -0.0124946098     4     2     6     6
 -0.0104352784     4     3     3     1
 -0.0030539098     4     3     3     2
 -0.5583058555     4     3     3     4
 -0.0352603703     4     3     3     6
 0.9526298688     4     4     1     1
 0.0353812608     4     4     1     2
 -0.0107060546     4     4     1     6
 0.0353812608     4     4     2     1
 0.5521091044     4     4     2     2
 -0.0651654878     4     4     2     6
 0.5583058555     4     4     3     3
 0.6132720019     4     4     5     5
 -0.0107060546     4     4     6     1
 -0.0651654878     4     4     6     2
 0.3225873331     4     4     6     6
 -0.0139513293     4     5     5     1
 -0.0067002344     4     5     5     2
 -0.6132720019     4     5     5     4
 -0.0423681812     4     5     5     6
 0.0755715948     4     6     1     1
 0.0084954421     4     6     1     2
 0.0107060546     4     6     1     4
 0.0077822173     4     6     2     1
 0.0308691055     4     6     2     2
 0.0651654878     4     6     2     4
 0.0352603703     4     6     3     3
 0.0423681812     4     6     5     5
 -0.0054235578     4     6     6     1
 0.0124946098     4     6     6     2
 -0.3225873331     4     6     6     4
 -1.0053472257     5     1     1     5
 -0.0407938261     5     1     2     5
 -0.0139513293     5     1     4     5
 0.0101937890     5     1     6     5
 -0.0407938261     5     2     1     5
 -0.5825920922     5     2     2     5
 -0.0067002344     5     2     4     5
 0.0636093415     5     2     6     5
 -0.5842722197     5     3     3     5
 -0.0139513293     5     4     1     5
 -0.0067002344     5     4     2     5
 -0.6132720019     5     4     4     5
 -0.0423681812     5     4     6     5
 1.0053472257     5     5     1     1
 0.0407938261     5     5     1     2
 0.0139513293     5     5     1     4
 -0.0101937890     5     5     1     6
 0.0407938261     5     5     2     1
 0.5825920922     5     5     2     2
 0.0067002344     5     5     2     4
 -0.0636093415     5     5     2     6
 0.5842722197     5     5     3     3
 0.0139513293     5     5     4     1
 0.0067002344     5     5     4     2
 0.6132720019     5     5     4     4
 0.0423681812     5     5     4     6
 -0.0101937890     5     5     6     1
 -0.0636093415     5     5     6     2
 0.0423681812     5     5     6     4
 0.3363210222     5     5     6     6
 0.0101937890     5     6     1     5
 0.0636093415     5     6     2     5
 -0.0423681812     5     6     4     5
 -0.3363210222     5     6     6     5
 0.1426188755     6     1     1     2
 -0.0755715948     6     1     1     4
 -0.3990942243     6     1     1     6
 0.0013615943     6     1     2     2
 -0.0084954421     6     1     2     4
 -0.0029168989     6     1     2     6
 -0.0048334435     6     1     3     3
 -0.0001762042     6     1     4     2
 -0.0107060546     6     1     4     4
 -0.0054235578     6     1     4     6
 -0.0101937890     6     1     5     5
 -0.1426188755     6     2     1     1
 -0.0077822173     6     2     1     4
 -0.0029168989     6     2     1     6
 -0.0013615943     6     2     2     1
 -0.0308691055     6     2     2     4
 -0.3353077825     6     2     2     6
 -0.0669702028     6     2     3     3
 0.0001762042     6     2     4     1
 -0.0651654878     6     2     4     4
 0.0124946098     6     2     4     6
 -0.0636093415     6     2     5     5
 0.0048334435     6     3     3     1
 0.0669702028     6     3     3     2
 -0.0352603703     6     3     3     4
 -0.3385861994     6     3     3     6
 0.0755715948     6     4     1     1
 0.0077822173     6     4     1     2
 -0.0054235578     6     4     1     6
 0.0084954421     6     4     2     1
 0.0308691055     6     4     2     2
 0.0124946098     6     4     2     6
 0.0352603703     6     4     3     3
 0.0107060546     6     4     4     1
 0.0651654878     6     4     4     2
 -0.3225873331     6     4     4     6
 0.0423681812     6     4     5     5
 0.0101937890     6     5     5     1
 0.0636093415     6     5     5     2
 -0.0423681812     6     5     5     4
 -0.3363210222     6     5     5     6
 0.3990942243     6     6     1     1
 0.0029168989     6     6     1     2
 0.0054235578     6     6     1     4
 0.0029168989     6     6     2     1
 0.3353077825     6     6     2     2
 -0.0124946098     6     6     2     4
 0.3385861994     6     6     3     3
 0.0054235578     6     6     4     1
 -0.0124946098     6     6     4     2
 0.3225873331     6     6     4     4
 0.3363210222     6     6     5     5
0.0 0 0 0 0
 0.9828832405     1     1     2     2
 0.0716493478     1     1     2     4
 -0.1426188755     1     1     2     6
 0.8561020969     1     1     3     3
 0.0716493478     1     1     4     2
 0.9526298688     1     1     4     4
 0.0755715948     1     1     4     6
 1.0053472257     1     1     5     5
 -0.1426188755     1     1     6     2
 0.0755715948     1     1     6     4
 0.3990942243     1     1     6     6
 -0.9828832405     1     2     2     1
 -0.0068313834     1     2     2     4
 -0.0013615943     1     2     2     6
 0.0296970079     1     2     3     3
 -0.0716493478     1     2     4     1
 0.0353812608     1     2     4     4
 0.0084954421     1     2     4     6
 0.0407938261     1     2     5     5
 0.1426188755     1     2     6     1
 0.0077822173     1     2     6     4
 0.0029168989     1     2     6     6
 -0.8561020969     1     3     3     1
 -0.0296970079     1     3     3     2
 -0.0104352784     1     3     3     4
 0.0048334435     1     3     3     6
 -0.0716493478     1     4     2     1
 0.0068313834     1     4     2     2
 0.0001762042     1     4     2     6
 0.0104352784     1     4     3     3
 -0.9526298688     1     4     4     1
 -0.0353812608     1     4     4     2
 0.0107060546     1     4     4     6
 0.0139513293     1     4     5     5
 -0.0755715948     1     4     6     1
 -0.0077822173     1     4     6     2
 0.0054235578     1     4     6     6
 -1.0053472257     1     5     5     1
 -0.0407938261     1     5     5     2
 -0.0139513293     1     5     5     4
 0.0101937890     1     5     5     6
 0.1426188755     1     6     2     1
 0.0013615943     1     6     2     2
 -0.0001762042     1     6     2     4
 -0.0048334435     1     6     3     3
 -0.0755715948     1     6     4     1
 -0.0084954421     1     6     4     2
 -0.0107060546     1     6     4     4
 -0.0101937890     1     6     5     5
 -0.3990942243     1     6     6     1
 -0.0029168989     1     6     6     2
 -0.0054235578     1     6     6     4
 -0.9828832405     2     1     1     2
 -0.0716493478     2     1     1     4
 0.1426188755     2     1     1     6
 0.0296970079     2     1     3     3
 -0.0068313834     2     1     4     2
 0.0353812608     2     1     4     4
 0.0077822173     2     1     4     6
 0.0407938261     2     1     5     5
 -0.0013615943     2     1     6     2
 0.0084954421     2     1     6     4
 0.0029168989     2     1     6     6
 0.9828832405     2     2     1     1
 0.0068313834     2     2     1     4
 0.0013615943     2     2     1     6
 0.5234540745     2     2     3     3
 0.0068313834     2     2     4     1
 0.5521091044     2     2     4     4
 0.0308691055     2     2     4     6
 0.5825920922     2     2     5     5
 0.0013615943     2     2     6     1
 0.0308691055     2     2     6     4
 0.3353077825     2     2     6     6
 -0.0296970079     2     3     3     1
 -0.5234540745     2     3     3     2
 -0.0030539098     2     3     3     4
 0.0669702028     2     3     3     6
 0.0716493478     2     4     1     1
 -0.0068313834     2     4     1     2
 -0.0001762042     2     4     1     6
 0.0030539098     2     4     3     3
 -0.0353812608     2     4     4     1
 -0.5521091044     2     4     4     2
 0.0651654878     2     4     4     6
 0.0067002344     2     4     5     5
 -0.0084954421     2     4     6     1
 -0.0308691055     2     4     6     2
 -0.0124946098     2     4     6     6
 -0.0407938261     2     5     5     1
 -0.5825920922     2     5     5     2
 -0.0067002344     2     5     5     4
 0.0636093415     2     5     5     6
 -0.1426188755     2     6     1     1
 -0.0013615943     2     6     1     2
 0.0001762042     2     6     1     4
 -0.0669702028     2     6     3     3
 -0.0077822173     2     6     4     1
 -0.0308691055     2     6     4     2
 -0.0651654878     2     6     4     4
 -0.0636093415     2     6     5     5
 -0.0029168989     2     6     6     1
 -0.3353077825     2     6     6     2
 0.0124946098     2     6     6     4
 -0.8561020969     3     1     1     3
 -0.0296970079     3     1     2     3
 -0.0104352784     3     1     4     3
 0.0048334435     3     1     6     3
 -0.0296970079     3     2     1     3
 -0.5234540745     3     2     2     3
 -0.0030539098     3     2     4     3
 0.0669702028     3     2     6     3
 0.8561020969     3     3     1     1
 0.0296970079     3     3     1     2
 0.0104352784     3     3     1     4
 -0.0048334435     3     3     1     6
 0.0296970079     3     3     2     1
 0.5234540745     3     3     2     2
 0.0030539098     3     3     2     4
 -0.0669702028     3     3     2     6
 0.0104352784     3     3     4     1
 0.0030539098     3     3     4     2
 0.5583058555     3     3     4     4
 0.0352603703     3     3     4     6
 0.5842722197     3     3     5     5
 -0.0048334435     3     3     6     1
 -0.0669702028     3     3     6     2
 0.0352603703     3     3     6     4
 0.3385861994     3     3     6     6
 -0.0104352784     3     4     1     3
 -0.0030539098     3     4     2     3
 -0.5583058555     3     4     4     3
 -0.0352603703     3     4     6     3
 -0.5842722197     3     5     5     3
 0.0048334435     3     6     1     3
 0.0669702028     3     6     2     3
 -0.0352603703     3     6     4     3
 -0.3385861994     3     6     6     3
 -0.0716493478     4     1     1     2
 -0.9526298688     4     1     1     4
 -0.0755715948     4     1     1     6
 0.0068313834     4     1     2     2
 -0.0353812608     4     1     2     4
 -0.0077822173     4     1     2     6
 0.0104352784     4     1     3     3
 0.0139513293     4     1     5     5
 0.0001762042     4     1     6     2
 0.0107060546     4     1     6     4
 0.0054235578     4     1     6     6
 0.0716493478     4     2     1     1
 -0.0353812608     4     2     1     4
 -0.0084954421     4     2     1     6
 -0.0068313834     4     2     2     1
 -0.5521091044     4     2     2     4
 -0.0308691055     4     2     2     6
 0.0030539098     4     2     3     3
 0.0067002344     4     2     5     5
 -0.0001762042     4     2     6     1
 0.0651654878     4     2     6     4
 -0.0124946098     4     2     6     6
 -0.0104352784     4     3     3     1
 -0.0030539098     4     3     3     2
 -0.5583058555     4     3     3     4
 -0.0352603703     4     3     3     6
 0.9526298688     4     4     1     1
 0.0353812608     4     4     1     2
 -0.0107060546     4     4     1     6
 0.0353812608     4     4     2     1
 0.5521091044     4     4     2     2
 -0.0651654878     4     4     2     6
 0.5583058555     4     4     3     3
 0.6132720019     4     4     5     5
 -0.0107060546     4     4     6     1
 -0.0651654878     4     4     6     2
 0.3225873331     4     4     6     6
 -0.0139513293     4     5     5     1
 -0.0067002344     4     5     5     2
 -0.6132720019     4     5     5     4
 -0.0423681812     4     5     5     6
 0.0755715948     4     6     1     1
 0.0084954421     4     6     1     2
 0.0107060546     4     6     1     4
 0.0077822173     4     6     2     1
 0.0308691055     4     6     2     2
 0.0651654878     4     6     2     4
 0.0352603703     4     6     3     3
 0.0423681812     4     6     5     5
 -0.0054235578     4     6     6     1
 0.0124946098     4     6     6     2
 -0.3225873331     4     6     6     4
 -1.0053472257     5     1     1     5
 -0.0407938261     5     1     2     5
 -0.0139513293     5     1     4     5
 0.0101937890     5     1     6     5
 -0.0407938261     5     2     1     5
 -0.5825920922     5     2     2     5
 -0.0067002344     5     2     4     5
 0.0636093415     5     2     6     5
 -0.5842722197     5     3     3     5
 -0.0139513293     5     4     1     5
 -0.0067002344     5     4     2     5
 -0.6132720019     5     4     4     5
 -0.0423681812     5     4     6     5
 1.0053472257     5     5     1     1
 0.0407938261     5     5     1     2
 0.0139513293     5     5     1     4
 -0.0101937890     5     5     1     6
 0.0407938261     5     5     2     1
 0.5825920922     5     5     2     2
 0.0067002344     5     5     2     4
 -0.0636093415     5     5     2     6
 0.5842722197     5     5     3     3
 0.0139513293     5     5     4     1
 0.0067002344     5     5     4     2
 0.6132720019     5     5     4     4
 0.0423681812     5     5     4     6
 -0.0101937890     5     5     6     1
 -0.0636093415     5     5     6     2
 0.0423681812     5     5     6     4
 0.3363210222     5     5     6     6
 0.0101937890     5     6     1     5
 0.0636093415     5     6     2     5
 -0.0423681812     5     6     4     5
 -0.3363210222     5     6     6     5
 0.1426188755     6     1     1     2
 -0.0755715948     6     1     1     4
 -0.3990942243     6     1     1     6
 0.0013615943     6     1     2     2
 -0.0084954421     6     1     2     4
 -0.0029168989     6     1     2     6
 -0.0048334435     6     1     3     3
 -0.0001762042     6     1     4     2
 -0.0107060546     6     1     4     4
 -0.0054235578     6     1     4     6
 -0.0101937890     6     1     5     5
 -0.1426188755     6     2     1     1
 -0.0077822173     6     2     1     4
 -0.0029168989     6     2     1     6
 -0.0013615943     6     2     2     1
 -0.0308691055     6     2     2     4
 -0.3353077825     6     2     2     6
 -0.0669702028     6     2     3     3
 0.0001762042     6     2     4     1
 -0.0651654878     6     2     4     4
 0.0124946098     6     2     4     6
 -0.0636093415     6     2     5     5
 0.0048334435     6     3     3     1
 0.0669702028     6     3     3     2
 -0.0352603703     6     3     3     4
 -0.3385861994     6     3     3     6
 0.0755715948     6     4     1     1
 0.0077822173     6     4     1     2
 -0.0054235578     6     4     1     6
 0.0084954421     6     4     2     1
 0.0308691055     6     4     2     2
 0.0124946098     6     4     2     6
 0.0352603703     6     4     3     3
 0.0107060546     6     4     4     1
 0.0651654878     6     4     4     2
 -0.3225873331     6     4     4     6
 0.0423681812     6     4     5     5
 0.0101937890     6     5     5     1
 0.0636093415     6     5     5     2
 -0.0423681812     6     5     5     4
 -0.3363210222     6     5     5     6
 0.3990942243     6     6     1     1
 0.0029168989     6     6     1     2
 0.0054235578     6     6     1     4
 0.0029168989     6     6     2     1
 0.3353077825     6     6     2     2
 -0.0124946098     6     6     2     4
 0.3385861994     6     6     3     3
 0.0054235578     6     6     4     1
 -0.0124946098     6     6     4     2
 0.3225873331     6     6     4     4
 0.3363210222     6     6     5     5
0.0 0 0 0 0
 4.7389920091     1     1     1     1
 0.4316471044     1     1     1     2
 0.1398353560     1     1     1     4
 -0.1446035916     1     1     1     6
 0.4316471044     1     1     2     1
 1.0467302187     1     1     2     2
 0.0884260324     1     1     2     4
 -0.1672617384     1     1     2     6
 0.8757027418     1     1     3     3
 0.1398353560     1     1     4     1
 0.0884260324     1     1     4     2
 0.9826139063     1     1     4     4
 0.0769489618     1     1     4     6
 1.0352624942     1     1     5     5
 -0.1446035916     1     1     6     1
 -0.1672617384     1     1     6     2
 0.0769489618     1     1     6     4
 0.4091524574     1     1     6     6
 0.4316471044     1     2     1     1
 0.0616039968     1     2     1     2
 0.0170066336     1     2     1     4
 -0.0232123364     1     2     1     6
 0.0638469782     1     2     2     1
 0.0147095395     1     2     2     2
 0.0078363372     1     2     2     4
 -0.0024545830     1     2     2     6
 0.0065772294     1     2     3     3
 0.0167766846     1     2     4     1
 0.0081165775     1     2     4     2
 0.0128731668     1     2     4     4
 -0.0010592476     1     2     4     6
 0.0114930530     1     2     5     5
 -0.0246428629     1     2     6     1
 -0.0010864284     1     2     6     2
 -0.0013917344     1     2     6     4
 0.0017680559     1     2     6     6
 0.0166828154     1     3     1     3
 -0.0221783953     1     3     2     3
 0.0196006449     1     3     3     1
 -0.0231197785     1     3     3     2
 -0.0030473194     1     3     3     4
 0.0043572676     1     3     3     6
 -0.0026225249     1     3     4     3
 0.0043617565     1     3     6     3
 0.1398353560     1     4     1     1
 0.0170066336     1     4     1     2
 0.0272140846     1     4     1     4
 0.0008031441     1     4     1     6
 0.0167766846     1     4     2     1
 0.0146677206     1     4     2     2
 -0.0217417092     1     4     2     4
 -0.0090397453     1     4     2     6
 0.0073879590     1     4     3     3
 0.0299840375     1     4     4     1
 -0.0225080940     1     4     4     2
 -0.0086662352     1     4     4     4
 0.0033567718     1     4     4     6
 0.0045801578     1     4     5     5
 0.0013773670     1     4     6     1
 -0.0091739517     1     4     6     2
 0.0028886004     1     4     6     4
 0.0066603239     1     4     6     6
 0.0271884177     1     5     1     5
 -0.0288516874     1     5     2     5
 -0.0090235212     1     5     4     5
 0.0299152685     1     5     5     1
 -0.0293007731     1     5     5     2
 -0.0093711715     1     5     5     4
 0.0076193471     1     5     5     6
 0.0070498091     1     5     6     5
 -0.1446035916     1     6     1     1
 -0.0232123364     1     6     1     2
 0.0008031441     1     6     1     4
 0.0104990496     1     6     1     6
 -0.0246428629     1     6     2     1
 -0.0010929887     1     6     2     2
 -0.0092159495     1     6     2     4
 -0.0019197882     1     6     2     6
 -0.0004761759     1     6     3     3
 0.0013773670     1     6     4     1
 -0.0095546897     1     6     4     2
 -0.0073492828     1     6     4     4
 0.0018798592     1     6     4     6
 -0.0025744419     1     6     5     5
 0.0100582331     1     6     6     1
 -0.0011488430     1     6     6     2
 0.0012367661     1     6     6     4
 0.0010071293     1     6     6     6
 0.4316471044     2     1     1     1
 0.0638469782     2     1     1     2
 0.0167766846     2     1     1     4
 -0.0246428629     2     1     1     6
 0.0616039968     2     1     2     1
 0.0147095395     2     1     2     2
 0.0081165775     2     1     2     4
 -0.0010864284     2     1     2     6
 0.0065772294     2     1     3     3
 0.0170066336     2     1     4     1
 0.0078363372     2     1     4     2
 0.0128731668     2     1     4     4
 -0.0013917344     2     1     4     6
 0.0114930530     2     1     5     5
 -0.0232123364     2     1     6     1
 -0.0024545830     2     1     6     2
 -0.0010592476     2     1     6     4
 0.0017680559     2     1     6     6
 1.0467302187     2     2     1     1
 0.0147095395     2     2     1     2
 0.0146677206     2     2     1     4
 -0.0010929887     2     2     1     6
 0.0147095395     2     2     2     1
 0.7459919427     2     2     2     2
 -0.0168158772     2     2     2     4
 -0.0962292596     2     2     2     6
 0.6722147818     2     2     3     3
 0.0146677206     2     2     4     1
 -0.0168158772     2     2     4     2
 0.6745507550     2     2     4     4
 0.0488525301     2     2     4     6
 0.7077455700     2     2     5     5
 -0.0010929887     2     2     6     1
 -0.0962292596     2     2     6     2
 0.0488525301     2     2     6     4
 0.3677403255     2     2     6     6
 -0.0221783953     2     3     1     3
 0.1439192313     2     3     2     3
 -0.0231197785     2     3     3     1
 0.1487607073     2     3     3     2
 -0.0154338337     2     3     3     4
 -0.0027892125     2     3     3     6
 -0.0164191585     2     3     4     3
 -0.0018370861     2     3     6     3
 0.0884260324     2     4     1     1
 0.0078363372     2     4     1     2
 -0.0217417092     2     4     1     4
 -0.0092159495     2     4     1     6
 0.0081165775     2     4     2     1
 -0.0168158772     2     4     2     2
 0.1176240209     2     4     2     4
 0.0175061567     2     4     2     6
 -0.0123799239     2     4     3     3
 -0.0225080940     2     4     4     1
 0.1224416506     2     4     4     2
 0.0690613663     2     4     4     4
 0.0006158001     2     4     4     6
 0.0367349258     2     4     5     5
 -0.0095546897     2     4     6     1
 0.0179834246     2     4     6     2
 0.0009394053     2     4     6     4
 -0.0302865102     2     4     6     6
 -0.0288516874     2     5     1     5
 0.1210151285     2     5     2     5
 0.0297249972     2     5     4     5
 -0.0293007731     2     5     5     1
 0.1251534778     2     5     5     2
 0.0300346914     2     5     5     4
 -0.0234680664     2     5     5     6
 -0.0216941823     2     5     6     5
 -0.1672617384     2     6     1     1
 -0.0024545830     2     6     1     2
 -0.0090397453     2     6     1     4
 -0.0019197882     2     6     1     6
 -0.0010864284     2     6     2     1
 -0.0962292596     2     6     2     2
 0.0175061567     2     6     2     4
 0.0394645048     2     6     2     6
 -0.0697594153     2     6     3     3
 -0.0091739517     2     6     4     1
 0.0179834246     2     6     4     2
 -0.0645496877     2     6     4     4
 -0.0219155062     2     6     4     6
 -0.0870774079     2     6     5     5
 -0.0011488430     2     6     6     1
 0.0324325430     2     6     6     2
 -0.0177919004     2     6     6     4
 -0.0171335527     2     6     6     6
 0.0196006449     3     1     1     3
 -0.0231197785     3     1     2     3
 0.0166828154     3     1     3     1
 -0.0221783953     3     1     3     2
 -0.0026225249     3     1     3     4
 0.0043617565     3     1     3     6
 -0.0030473194     3     1     4     3
 0.0043572676     3     1     6     3
 -0.0231197785     3     2     1     3
 0.1487607073     3     2     2     3
 -0.0221783953     3     2     3     1
 0.1439192313     3     2     3     2
 -0.0164191585     3     2     3     4
 -0.0018370861     3     2     3     6
 -0.0154338337     3     2     4     3
 -0.0027892125     3     2     6     3
 0.8757027418     3     3     1     1
 0.0065772294     3     3     1     2
 0.0073879590     3     3     1     4
 -0.0004761759     3     3     1     6
 0.0065772294     3     3     2     1
 0.6722147818     3     3     2     2
 -0.0123799239     3     3     2     4
 -0.0697594153     3     3     2     6
 0.6438382812     3     3     3     3
 0.0073879590     3     3     4     1
 -0.0123799239     3     3     4     2
 0.5959262868     3     3     4     4
 0.0325101489     3     3     4     6
 0.6132230630     3     3     5     5
 -0.0004761759     3     3     6     1
 -0.0697594153     3     3     6     2
 0.0325101489     3     3     6     4
 0.3586509025     3     3     6     6
 -0.0030473194     3     4     1     3
 -0.0154338337     3     4     2     3
 -0.0026225249     3     4     3     1
 -0.0164191585     3     4     3     2
 0.0321309490     3     4     3     4
 -0.0041871063     3     4     3     6
 0.0376204313     3     4     4     3
 -0.0027502214     3     4     6     3
 0.0237503555     3     5     3     5
 0.0289508433     3     5     5     3
 0.0043572676     3     6     1     3
 -0.0027892125     3     6     2     3
 0.0043617565     3     6     3     1
 -0.0018370861     3     6     3     2
 -0.0041871063     3     6     3     4