&FCI NORB=  9,NELEC=  6,MS2=0,
 ORBSYM=1,1,1,1,1,1,1,1,1
 ISYM=1,
&END
 0.2005038695     1     1     2     2
 0.0259279265     1     1     2     4
 -0.0012500115     1     1     2     6
 0.0079551334     1     1     2     8
 0.2427130084     1     1     3     3
 -0.0373291407     1     1     3     5
 0.0094962890     1     1     3     7
 0.0259279265     1     1     4     2
 0.2407836895     1     1     4     4
 0.0520317128     1     1     4     6
 0.0317988176     1     1     4     8
 -0.0373291407     1     1     5     3
 0.1855662180     1     1     5     5
 0.0020626808     1     1     5     7
 -0.0012500115     1     1     6     2
 0.0520317128     1     1     6     4
 0.1877130335     1     1     6     6
 -0.0091901769     1     1     6     8
 0.0094962890     1     1     7     3
 0.0020626808     1     1     7     5
 0.2380937586     1     1     7     7
 0.0079551334     1     1     8     2
 0.0317988176     1     1     8     4
 -0.0091901769     1     1     8     6
 0.1983677899     1     1     8     8
 0.2948540137     1     1     9     9
 -0.2005038695     1     2     2     1
 -0.0670154887     1     2     2     3
 0.0046569371     1     2     2     5
 -0.0104213355     1     2     2     7
 0.0561328701     1     2     3     4
 0.0266604566     1     2     3     6
 0.0137092714     1     2     3     8
 -0.0259279265     1     2     4     1
 0.0202612547     1     2     4     3
 0.0447825713     1     2     4     5
 -0.0136191097     1     2     4     7
 0.0321108541     1     2     5     4
 -0.0352986628     1     2     5     6
 -0.0074602170     1     2     5     8
 0.0012500115     1     2     6     1
 0.0173538789     1     2     6     3
 -0.0287817428     1     2     6     5
 -0.0170266466     1     2     6     7
 -0.0074324179     1     2     7     4
 -0.0156035237     1     2     7     6
 0.0366904785     1     2     7     8
 -0.0079551334     1     2     8     1
 0.0011868413     1     2     8     3
 -0.0028421211     1     2     8     5
 0.0337701521     1     2     8     7
 0.0670154887     1     3     2     2
 0.0367749872     1     3     2     4
 0.0095695815     1     3     2     6
 0.0125976056     1     3     2     8
 -0.2427130084     1     3     3     1
 -0.0267767151     1     3     3     5
 -0.0065131315     1     3     3     7
 -0.0202612547     1     3     4     2
 0.0058876844     1     3     4     4
 0.0177621765     1     3     4     6
 0.0088395094     1     3     4     8
 0.0373291407     1     3     5     1
 -0.0043009365     1     3     5     5
 0.0065728148     1     3     5     7
 -0.0173538789     1     3     6     2
 0.0056244356     1     3     6     4
 -0.0020640714     1     3     6     6
 0.0000000001     1     3     6     7
 -0.0048512866     1     3     6     8
 -0.0094962890     1     3     7     1
 0.0024617367     1     3     7     5
 0.0252138867     1     3     7     7
 -0.0011868413     1     3     8     2
 0.0093180527     1     3     8     4
 -0.0010164395     1     3     8     6
 -0.0000000001     1     3     8     7
 0.0051948730     1     3     8     8
 0.0391056344     1     3     9     9
 -0.0259279265     1     4     2     1
 -0.0367749872     1     4     2     3
 0.0130605929     1     4     2     5
 -0.0064009699     1     4     2     7
 -0.0561328701     1     4     3     2
 0.0122216940     1     4     3     6
 -0.0009600278     1     4     3     8
 -0.2407836895     1     4     4     1
 -0.0058876844     1     4     4     3
 -0.0051656410     1     4     4     5
 -0.0147525337     1     4     4     7
 -0.0321108541     1     4     5     2
 0.0029566326     1     4     5     6
 0.0005958956     1     4     5     8
 -0.0520317128     1     4     6     1
 -0.0056244356     1     4     6     3
 -0.0031355022     1     4     6     5
 -0.0000000001     1     4     6     6
 -0.0101210581     1     4     6     7
 -0.0000000003     1     4     6     8
 0.0074324179     1     4     7     2
 -0.0052990629     1     4     7     6
 0.0000000001     1     4     7     7
 0.0091207719     1     4     7     8
 -0.0317988176     1     4     8     1
 -0.0093180527     1     4     8     3
 0.0026588862     1     4     8     5
 -0.0000000001     1     4     8     6
 0.0043071783     1     4     8     7
 -0.0046569371     1     5     2     2
 -0.0130605929     1     5     2     4
 -0.0071807612     1     5     2     6
 -0.0050834752     1     5     2     8
 0.0373291407     1     5     3     1
 0.0267767151     1     5     3     3
 0.0044035316     1     5     3     7
 -0.0000000001     1     5     3     8
 -0.0447825713     1     5     4     2
 0.0051656410     1     5     4     4
 0.0061308734     1     5     4     6
 -0.0020049832     1     5     4     8
 -0.1855662180     1     5     5     1
 0.0043009365     1     5     5     3
 -0.0078274987     1     5     5     7
 0.0000000001     1     5     5     8
 0.0287817428     1     5     6     2
 0.0031355022     1     5     6     4
 0.0026101770     1     5     6     6
 -0.0001003621     1     5     6     8
 -0.0020626808     1     5     7     1
 -0.0024617367     1     5     7     3
 0.0000000001     1     5     7     6
 0.0044477333     1     5     7     7
 -0.0000000002     1     5     7     8
 0.0028421211     1     5     8     2
 -0.0026588862     1     5     8     4
 -0.0030458040     1     5     8     6
 0.0037412555     1     5     8     8
 0.0087663383     1     5     9     9
 0.0012500115     1     6     2     1
 -0.0095695815     1     6     2     3
 0.0071807612     1     6     2     5
 -0.0015644373     1     6     2     7
 -0.0266604566     1     6     3     2
 -0.0122216940     1     6     3     4
 -0.0041309577     1     6     3     8
 -0.0520317128     1     6     4     1
 -0.0177621765     1     6     4     3
 -0.0061308734     1     6     4     5
 -0.0047855130     1     6     4     7
 -0.0000000002     1     6     4     8
 0.0352986628     1     6     5     2
 -0.0029566326     1     6     5     4
 -0.0000000001     1     6     5     7
 0.0029074868     1     6     5     8
 -0.1877130335     1     6     6     1
 0.0020640714     1     6     6     3
 0.0000000001     1     6     6     4
 -0.0026101770     1     6     6     5
 -0.0073243461     1     6     6     7
 0.0000000012     1     6     6     8
 0.0156035237     1     6     7     2
 0.0052990629     1     6     7     4
 -0.0000000001     1     6     7     5
 0.0022633049     1     6     7     8
 0.0091901769     1     6     8     1
 0.0010164395     1     6     8     3
 0.0000000001     1     6     8     4
 0.0030458040     1     6     8     5
 -0.0013512276     1     6     8     7
 0.0000000010     1     6     8     8
 0.0104213355     1     7     2     2
 0.0064009699     1     7     2     4
 0.0015644373     1     7     2     6
 0.0032238613     1     7     2     8
 -0.0094962890     1     7     3     1
 0.0065131315     1     7     3     3
 -0.0044035316     1     7     3     5
 0.0000000001     1     7     3     8
 0.0136191097     1     7     4     2
 0.0147525337     1     7     4     4
 0.0047855130     1     7     4     6
 0.0047213588     1     7     4     8
 -0.0020626808     1     7     5     1
 -0.0065728148     1     7     5     3
 0.0078274987     1     7     5     5
 0.0000000001     1     7     5     6
 -0.0000000002     1     7     5     8
 0.0170266466     1     7     6     2
 -0.0000000001     1     7     6     3
 0.0101210581     1     7     6     4
 0.0073243461     1     7     6     6
 0.0035667005     1     7     6     8
 -0.2380937586     1     7     7     1
 -0.0252138867     1     7     7     3
 -0.0000000001     1     7     7     4
 -0.0044477333     1     7     7     5
 0.0000000002     1     7     7     8
 -0.0337701521     1     7     8     2
 0.0000000001     1     7     8     3
 -0.0043071783     1     7     8     4
 0.0013512276     1     7     8     6
 0.0019783496     1     7     8     8
 0.0314313544     1     7     9     9
 -0.0079551334     1     8     2     1
 -0.0125976056     1     8     2     3
 0.0050834752     1     8     2     5
 -0.0032238613     1     8     2     7
 -0.0137092714     1     8     3     2
 0.0009600278     1     8     3     4
 0.0000000001     1     8     3     5
 0.0041309577     1     8     3     6
 -0.0000000001     1     8     3     7
 -0.0317988176     1     8     4     1
 -0.0088395094     1     8     4     3
 0.0020049832     1     8     4     5
 0.0000000002     1     8     4     6
 -0.0047213588     1     8     4     7
 0.0074602170     1     8     5     2
 -0.0005958956     1     8     5     4
 -0.0000000001     1     8     5     5
 -0.0029074868     1     8     5     6
 0.0000000002     1     8     5     7
 0.0091901769     1     8     6     1
 0.0048512866     1     8     6     3
 0.0000000003     1     8     6     4
 0.0001003621     1     8     6     5
 -0.0000000012     1     8     6     6
 -0.0035667005     1     8     6     7
 -0.0366904785     1     8     7     2
 -0.0091207719     1     8     7     4
 0.0000000002     1     8     7     5
 -0.0022633049     1     8     7     6
 -0.0000000002     1     8     7     7
 -0.1983677899     1     8     8     1
 -0.0051948730     1     8     8     3
 -0.0037412555     1     8     8     5
 -0.0000000010     1     8     8     6
 -0.0019783496     1     8     8     7
 -0.2948540137     1     9     9     1
 -0.0391056344     1     9     9     3
 -0.0087663383     1     9     9     5
 -0.0314313544     1     9     9     7
 -0.2005038695     2     1     1     2
 -0.0259279265     2     1     1     4
 0.0012500115     2     1     1     6
 -0.0079551334     2     1     1     8
 -0.0670154887     2     1     3     2
 0.0202612547     2     1     3     4
 0.0173538789     2     1     3     6
 0.0011868413     2     1     3     8
 0.0561328701     2     1     4     3
 0.0321108541     2     1     4     5
 -0.0074324179     2     1     4     7
 0.0046569371     2     1     5     2
 0.0447825713     2     1     5     4
 -0.0287817428     2     1     5     6
 -0.0028421211     2     1     5     8
 0.0266604566     2     1     6     3
 -0.0352986628     2     1     6     5
 -0.0156035237     2     1     6     7
 -0.0104213355     2     1     7     2
 -0.0136191097     2     1     7     4
 -0.0170266466     2     1     7     6
 0.0337701521     2     1     7     8
 0.0137092714     2     1     8     3
 -0.0074602170     2     1     8     5
 0.0366904785     2     1     8     7
 0.2005038695     2     2     1     1
 0.0670154887     2     2     1     3
 -0.0046569371     2     2     1     5
 0.0104213355     2     2     1     7
 0.0670154887     2     2     3     1
 0.2020038632     2     2     3     3
 -0.0133752500     2     2     3     5
 0.0103117482     2     2     3     7
 0.2228495420     2     2     4     4
 0.0341860847     2     2     4     6
 0.0191202645     2     2     4     8
 -0.0046569371     2     2     5     1
 -0.0133752500     2     2     5     3
 0.1881055617     2     2     5     5
 -0.0008111360     2     2     5     7
 0.0341860847     2     2     6     4
 0.1875838358     2     2     6     6
 -0.0069941389     2     2     6     8
 0.0104213355     2     2     7     1
 0.0103117482     2     2     7     3
 -0.0008111360     2     2     7     5
 0.2107983735     2     2     7     7
 0.0191202645     2     2     8     4
 -0.0069941389     2     2     8     6
 0.1917318070     2     2     8     8
 0.2575244348     2     2     9     9
 -0.0670154887     2     3     1     2
 -0.0367749872     2     3     1     4
 -0.0095695815     2     3     1     6
 -0.0125976056     2     3     1     8
 -0.2020038632     2     3     3     2
 -0.0730862542     2     3     3     4
 -0.0169980947     2     3     3     6
 -0.0186709834     2     3     3     8
 -0.0561328701     2     3     4     1
 -0.0553737750     2     3     4     5
 0.0063096436     2     3     4     7
 0.0133752500     2     3     5     2
 -0.0289553960     2     3     5     4
 0.0417735493     2     3     5     6
 0.0126203176     2     3     5     8
 -0.0266604566     2     3     6     1
 0.0283043074     2     3     6     5
 0.0119018791     2     3     6     7
 0.0000000001     2     3     6     8
 -0.0103117482     2     3     7     2
 0.0003250411     2     3     7     4
 0.0103976262     2     3     7     6
 -0.0346349019     2     3     7     8
 -0.0137092714     2     3     8     1
 0.0043265814     2     3     8     5
 -0.0317312691     2     3     8     7
 -0.0000000001     2     3     8     8
 0.0259279265     2     4     1     1
 0.0367749872     2     4     1     3
 -0.0130605929     2     4     1     5
 0.0064009699     2     4     1     7
 -0.0202612547     2     4     3     1
 0.0730862542     2     4     3     3
 -0.0279965307     2     4     3     5
 0.0056221602     2     4     3     7
 -0.2228495420     2     4     4     2
 0.0277543797     2     4     4     6
 0.0010445735     2     4     4     8
 -0.0447825713     2     4     5     1
 0.0289553960     2     4     5     3
 -0.0051828036     2     4     5     5
 -0.0020286562     2     4     5     7
 -0.0341860847     2     4     6     2
 0.0012999065     2     4     6     6
 0.0000000001     2     4     6     7
 -0.0093765589     2     4     6     8
 0.0136191097     2     4     7     1
 -0.0003250411     2     4     7     3
 0.0012628757     2     4     7     5
 0.0287275177     2     4     7     7
 0.0000000001     2     4     7     8
 -0.0191202645     2     4     8     2
 -0.0000000001     2     4     8     5
 -0.0052685664     2     4     8     6
 0.0000000001     2     4     8     7
 0.0068325061     2     4     8     8
 0.0402195748     2     4     9     9
 0.0046569371     2     5     1     2
 0.0130605929     2     5     1     4
 0.0071807612     2     5     1     6
 0.0050834752     2     5     1     8
 0.0133752500     2     5     3     2
 0.0279965307     2     5     3     4
 0.0145220243     2     5     3     6
 0.0087231985     2     5     3     8
 -0.0321108541     2     5     4     1
 0.0553737750     2     5     4     3
 -0.0034252943     2     5     4     7
 -0.1881055617     2     5     5     2
 0.0051828036     2     5     5     4
 0.0113992637     2     5     5     6
 -0.0014209397     2     5     5     8
 0.0352986628     2     5     6     1
 -0.0283043074     2     5     6     3
 -0.0000000001     2     5     6     6
 -0.0006535697     2     5     6     7
 -0.0000000001     2     5     6     8
 0.0008111360     2     5     7     2
 -0.0012628757     2     5     7     4
 -0.0039565347     2     5     7     6
 0.0000000001     2     5     7     7
 0.0073541682     2     5     7     8
 0.0074602170     2     5     8     1
 -0.0043265814     2     5     8     3
 0.0000000001     2     5     8     4
 0.0075870279     2     5     8     7
 -0.0000000001     2     5     8     8
 -0.0012500115     2     6     1     1
 0.0095695815     2     6     1     3
 -0.0071807612     2     6     1     5
 0.0015644373     2     6     1     7
 -0.0173538789     2     6     3     1
 0.0169980947     2     6     3     3
 -0.0145220243     2     6     3     5
 0.0013658141     2     6     3     7
 0.0000000001     2     6     3     8
 -0.0341860847     2     6     4     2
 -0.0277543797     2     6     4     4
 0.0000000001     2     6     4     7
 -0.0040606170     2     6     4     8
 0.0287817428     2     6     5     1
 -0.0417735493     2     6     5     3
 -0.0113992637     2     6     5     5
 0.0034283625     2     6     5     7
 -0.0000000001     2     6     5     8
 -0.1875838358     2     6     6     2
 -0.0012999065     2     6     6     4
 0.0000000001     2     6     6     5
 -0.0000000004     2     6     6     7
 -0.0055236418     2     6     6     8
 0.0170266466     2     6     7     1
 -0.0103976262     2     6     7     3
 0.0039565347     2     6     7     5
 0.0015340949     2     6     7     7
 -0.0000000001     2     6     7     8
 0.0069941389     2     6     8     2
 0.0052685664     2     6     8     4
 -0.0000000003     2     6     8     7
 -0.0054937068     2     6     8     8
 -0.0035916659     2     6     9     9
 -0.0104213355     2     7     1     2
 -0.0064009699     2     7     1     4
 -0.0015644373     2     7     1     6
 -0.0032238613     2     7     1     8
 -0.0103117482     2     7     3     2
 -0.0056221602     2     7     3     4
 -0.0013658141     2     7     3     6
 -0.0030122478     2     7     3     8
 0.0074324179     2     7     4     1
 -0.0063096436     2     7     4     3
 0.0034252943     2     7     4     5
 -0.0000000001     2     7     4     6
 0.0000000001     2     7     4     8
 0.0008111360     2     7     5     2
 0.0020286562     2     7     5     4
 -0.0034283625     2     7     5     6
 -0.0002819455     2     7     5     8
 0.0156035237     2     7     6     1
 -0.0119018791     2     7     6     3
 -0.0000000001     2     7     6     4
 0.0006535697     2     7     6     5
 0.0000000004     2     7     6     6
 0.0000000002     2     7     6     8
 -0.2107983735     2     7     7     2
 -0.0287275177     2     7     7     4
 -0.0000000001     2     7     7     5
 -0.0015340949     2     7     7     6
 -0.0064096853     2     7     7     8
 -0.0366904785     2     7     8     1
 0.0317312691     2     7     8     3
 -0.0000000001     2     7     8     4
 -0.0075870279     2     7     8     5
 0.0000000003     2     7     8     6
 0.0000000006     2     7     8     8
 0.0079551334     2     8     1     1
 0.0125976056     2     8     1     3
 -0.0050834752     2     8     1     5
 0.0032238613     2     8     1     7
 -0.0011868413     2     8     3     1
 0.0186709834     2     8     3     3
 -0.0087231985     2     8     3     5
 -0.0000000001     2     8     3     6
 0.0030122478     2     8     3     7
 -0.0191202645     2     8     4     2
 -0.0010445735     2     8     4     4
 0.0040606170     2     8     4     6
 -0.0000000001     2     8     4     7
 0.0028421211     2     8     5     1
 -0.0126203176     2     8     5     3
 0.0014209397     2     8     5     5
 0.0000000001     2     8     5     6
 0.0002819455     2     8     5     7
 0.0069941389     2     8     6     2
 -0.0000000001     2     8     6     3
 0.0093765589     2     8     6     4
 0.0000000001     2     8     6     5
 0.0055236418     2     8     6     6
 -0.0000000002     2     8     6     7
 -0.0337701521     2     8     7     1
 0.0346349019     2     8     7     3
 -0.0000000001     2     8     7     4
 -0.0073541682     2     8     7     5
 0.0000000001     2     8     7     6
 0.0064096853     2     8     7     7
 -0.1917318070     2     8     8     2
 0.0000000001     2     8     8     3
 -0.0068325061     2     8     8     4
 0.0000000001     2     8     8     5
 0.0054937068     2     8     8     6
 -0.0000000006     2     8     8     7
 0.0185124839     2     8     9     9
 -0.2575244348     2     9     9     2
 -0.0402195748     2     9     9     4
 0.0035916659     2     9     9     6
 -0.0185124839     2     9     9     8
 -0.2427130084     3     1     1     3
 0.0373291407     3     1     1     5
 -0.0094962890     3     1     1     7
 0.0670154887     3     1     2     2
 -0.0202612547     3     1     2     4
 -0.0173538789     3     1     2     6
 -0.0011868413     3     1     2     8
 0.0367749872     3     1     4     2
 0.0058876844     3     1     4     4
 0.0056244356     3     1     4     6
 0.0093180527     3     1     4     8
 -0.0267767151     3     1     5     3
 -0.0043009365     3     1     5     5
 0.0024617367     3     1     5     7
 0.0095695815     3     1     6     2
 0.0177621765     3     1     6     4
 -0.0020640714     3     1     6     6
 -0.0010164395     3     1     6     8
 -0.0065131315     3     1     7     3
 0.0065728148     3     1     7     5
 0.0000000001     3     1     7     6
 0.0252138867     3     1     7     7
 -0.0000000001     3     1     7     8
 0.0125976056     3     1     8     2
 0.0088395094     3     1     8     4
 -0.0048512866     3     1     8     6
 0.0051948730     3     1     8     8
 0.0391056344     3     1     9     9
 -0.0561328701     3     2     1     4
 -0.0266604566     3     2     1     6
 -0.0137092714     3     2     1     8
 -0.0670154887     3     2     2     1
 -0.2020038632     3     2     2     3
 0.0133752500     3     2     2     5
 -0.0103117482     3     2     2     7
 -0.0367749872     3     2     4     1
 -0.0730862542     3     2     4     3
 -0.0289553960     3     2     4     5
 0.0003250411     3     2     4     7
 -0.0553737750     3     2     5     4
 0.0283043074     3     2     5     6
 0.0043265814     3     2     5     8
 -0.0095695815     3     2     6     1
 -0.0169980947     3     2     6     3
 0.0417735493     3     2     6     5
 0.0103976262     3     2     6     7
 0.0063096436     3     2     7     4
 0.0119018791     3     2     7     6
 -0.0317312691     3     2     7     8
 -0.0125976056     3     2     8     1
 -0.0186709834     3     2     8     3
 0.0126203176     3     2     8     5
 0.0000000001     3     2     8     6
 -0.0346349019     3     2     8     7
 -0.0000000001     3     2     8     8
 0.2427130084     3     3     1     1
 0.0267767151     3     3     1     5
 0.0065131315     3     3     1     7
 0.2020038632     3     3     2     2
 0.0730862542     3     3     2     4
 0.0169980947     3     3     2     6
 0.0186709834     3     3     2     8
 0.0730862542     3     3     4     2
 0.2160598651     3     3     4     4
 0.0253812120     3     3     4     6
 0.0240834859     3     3     4     8
 0.0267767151     3     3     5     1
 0.1834694713     3     3     5     5
 0.0053951848     3     3     5     7
 0.0169980947     3     3     6     2
 0.0253812120     3     3     6     4
 0.1804338135     3     3     6     6
 -0.0057573232     3     3     6     8
 0.0065131315     3     3     7     1
 0.0053951848     3     3     7     5
 0.2113976871     3     3     7     7
 0.0186709834     3     3     8     2
 0.0240834859     3     3     8     4
 -0.0057573232     3     3     8     6
 0.1919210452     3     3     8     8
 0.2651241778     3     3     9     9
 0.0561328701     3     4     1     2
 -0.0122216940     3     4     1     6
 0.0009600278     3     4     1     8
 0.0202612547     3     4     2     1
 -0.0730862542     3     4     2     3
 0.0279965307     3     4     2     5
 -0.0056221602     3     4     2     7
 -0.0058876844     3     4     4     1
 -0.2160598651     3     4     4     3
 0.0619843919     3     4     4     5
 -0.0000000001     3     4     4     6
 -0.0146355477     3     4     4     7
 0.0000000001     3     4     4     8
 0.0553737750     3     4     5     2
 -0.0497476491     3     4     5     6
 -0.0108107294     3     4     5     8
 -0.0177621765     3     4     6     1
 -0.0253812120     3     4     6     3
 -0.0164852089     3     4     6     5
 0.0000000004     3     4     6     6
 -0.0156313663     3     4     6     7
 -0.0000000005     3     4     6     8
 -0.0063096436     3     4     7     2
 -0.0071198399     3     4     7     6
 0.0243287865     3     4     7     8
 -0.0088395094     3     4     8     1
 -0.0240834859     3     4     8     3
 0.0039025743     3     4     8     5
 -0.0000000002     3     4     8     6
 0.0186571488     3     4     8     7
 0.0000000003     3     4     8     8
 -0.0373291407     3     5     1     1
 -0.0267767151     3     5     1     3
 -0.0044035316     3     5     1     7
 0.0000000001     3     5     1     8
 -0.0133752500     3     5     2     2
 -0.0279965307     3     5     2     4
 -0.0145220243     3     5     2     6
 -0.0087231985     3     5     2     8
 0.0289553960     3     5     4     2
 -0.0619843919     3     5     4     4
 -0.0334788833     3     5     4     6
 -0.0147004669     3     5     4     8
 0.0043009365     3     5     5     1
 -0.1834694713     3     5     5     3
 -0.0000000002     3     5     5     6
 -0.0011650999     3     5     5     7
 0.0000000003     3     5     5     8
 -0.0417735493     3     5     6     2
 0.0164852089     3     5     6     4
 0.0049905828     3     5     6     6
 0.0000000001     3     5     6     7
 0.0051060163     3     5     6     8
 -0.0065728148     3     5     7     1
 -0.0053951848     3     5     7     3
 0.0000000003     3     5     7     6
 -0.0253348579     3     5     7     7
 -0.0000000005     3     5     7     8
 -0.0126203176     3     5     8     2
 -0.0039025743     3     5     8     4
 0.0032191853     3     5     8     6
 -0.0133140118     3     5     8     8
 -0.0377283903     3     5     9     9
 0.0266604566     3     6     1     2
 0.0122216940     3     6     1     4
 0.0041309577     3     6     1     8
 0.0173538789     3     6     2     1
 -0.0169980947     3     6     2     3
 0.0145220243     3     6     2     5
 -0.0013658141     3     6     2     7
 -0.0000000001     3     6     2     8
 -0.0056244356     3     6     4     1
 -0.0253812120     3     6     4     3
 0.0000000001     3     6     4     4
 0.0334788833     3     6     4     5
 -0.0086077473     3     6     4     7
 -0.0000000003     3     6     4     8
 -0.0283043074     3     6     5     2
 0.0497476491     3     6     5     4
 0.0000000002     3     6     5     5
 -0.0000000002     3     6     5     7
 0.0017947447     3     6     5     8
 0.0020640714     3     6     6     1
 -0.1804338135     3     6     6     3
 -0.0000000004     3     6     6     4
 -0.0049905828     3     6     6     5
 -0.0061287315     3     6     6     7
 0.0000000041     3     6     6     8
 -0.0000000001     3     6     7     1
 -0.0119018791     3     6     7     2
 0.0071198399     3     6     7     4
 -0.0000000003     3     6     7     5
 0.0000000005     3     6     7     7
 0.0145113796     3     6     7     8
 0.0048512866     3     6     8     1
 -0.0000000001     3     6     8     2
 0.0057573232     3     6     8     3
 0.0000000002     3     6     8     4
 -0.0032191853     3     6     8     5
 0.0124956863     3     6     8     7
 0.0000000040     3     6     8     8
 0.0094962890     3     7     1     1
 -0.0065131315     3     7     1     3
 0.0044035316     3     7     1     5
 -0.0000000001     3     7     1     8
 0.0103117482     3     7     2     2
 0.0056221602     3     7     2     4
 0.0013658141     3     7     2     6
 0.0030122478     3     7     2     8
 -0.0003250411     3     7     4     2
 0.0146355477     3     7     4     4
 0.0086077473     3     7     4     6
 0.0057209549     3     7     4     8
 -0.0024617367     3     7     5     1
 -0.0053951848     3     7     5     3
 0.0011650999     3     7     5     5
 0.0000000002     3     7     5     6
 -0.0000000005     3     7     5     8
 -0.0103976262     3     7     6     2
 0.0156313663     3     7     6     4
 -0.0000000001     3     7     6     5
 0.0061287315     3     7     6     6
 0.0019861359     3     7     6     8
 -0.0252138867     3     7     7     1
 -0.2113976871     3     7     7     3
 0.0253348579     3     7     7     5
 -0.0000000005     3     7     7     6
 0.0000000007     3     7     7     8
 0.0346349019     3     7     8     2
 -0.0186571488     3     7     8     4
 -0.0124956863     3     7     8     6
 -0.0009411796     3     7     8     8
 0.0170061227     3     7     9     9
 0.0137092714     3     8     1     2
 -0.0009600278     3     8     1     4
 -0.0000000001     3     8     1     5
 -0.0041309577     3     8     1     6
 0.0000000001     3     8     1     7
 0.0011868413     3     8     2     1
 -0.0186709834     3     8     2     3
 0.0087231985     3     8     2     5
 0.0000000001     3     8     2     6
 -0.0030122478     3     8     2     7
 -0.0093180527     3     8     4     1
 -0.0240834859     3     8     4     3
 -0.0000000001     3     8     4     4
 0.0147004669     3     8     4     5
 0.0000000003     3     8     4     6
 -0.0057209549     3     8     4     7
 -0.0043265814     3     8     5     2
 0.0108107294     3     8     5     4
 -0.0000000003     3     8     5     5
 -0.0017947447     3     8     5     6
 0.0000000005     3     8     5     7
 0.0010164395     3     8     6     1
 0.0057573232     3     8     6     3
 0.0000000005     3     8     6     4
 -0.0051060163     3     8     6     5
 -0.0000000041     3     8     6     6
 -0.0019861359     3     8     6     7
 0.0000000001     3     8     7     1
 0.0317312691     3     8     7     2
 -0.0243287865     3     8     7     4
 0.0000000005     3     8     7     5
 -0.0145113796     3     8     7     6
 -0.0000000007     3     8     7     7
 -0.0051948730     3     8     8     1
 0.0000000001     3     8     8     2
 -0.1919210452     3     8     8     3
 -0.0000000003     3     8     8     4
 0.0133140118     3     8     8     5
 -0.0000000040     3     8     8     6
 0.0009411796     3     8     8     7
 -0.0391056344     3     9     9     1
 -0.2651241778     3     9     9     3
 0.0377283903     3     9     9     5
 -0.0170061227     3     9     9     7
 -0.0259279265     4     1     1     2
 -0.2407836895     4     1     1     4
 -0.0520317128     4     1     1     6
 -0.0317988176     4     1     1     8
 -0.0561328701     4     1     2     3
 -0.0321108541     4     1     2     5
 0.0074324179     4     1     2     7
 -0.0367749872     4     1     3     2
 -0.0058876844     4     1     3     4
 -0.0056244356     4     1     3     6
 -0.0093180527     4     1     3     8
 0.0130605929     4     1     5     2
 -0.0051656410     4     1     5     4
 -0.0031355022     4     1     5     6
 0.0026588862     4     1     5     8
 0.0122216940     4     1     6     3
 0.0029566326     4     1     6     5
 -0.0000000001     4     1     6     6
 -0.0052990629     4     1     6     7
 -0.0000000001     4     1     6     8
 -0.0064009699     4     1     7     2
 -0.0147525337     4     1     7     4
 -0.0101210581     4     1     7     6
 0.0000000001     4     1     7     7
 0.0043071783     4     1     7     8
 -0.0009600278     4     1     8     3
 0.0005958956     4     1     8     5
 -0.0000000003     4     1     8     6
 0.0091207719     4     1     8     7
 0.0259279265     4     2     1     1
 -0.0202612547     4     2     1     3