&FCI NORB= 10,NELEC= 10,MS2=0,
 ORBSYM=1,1,1,1,1,1,1,1,1,1
 ISYM=1,
&END
 0.9856970535     1     1     2     2
 0.0672687105     1     1     2     4
 -0.0992756800     1     1     2     6
 0.0493361382     1     1     2     8
 0.8732439974     1     1     3     3
 0.1080090004     1     1     3     7
 -0.0395845206     1     1     3     9
 0.0672687105     1     1     4     2
 0.9505250558     1     1     4     4
 0.0522597614     1     1     4     6
 0.1142592312     1     1     4     8
 0.9977480085     1     1     5     5
 0.2045159761     1     1     5    10
 -0.0992756800     1     1     6     2
 0.0522597614     1     1     6     4
 0.2794183502     1     1     6     6
 -0.0146716249     1     1     6     8
 0.1080090004     1     1     7     3
 0.2408336042     1     1     7     7
 -0.0303526738     1     1     7     9
 0.0493361382     1     1     8     2
 0.1142592312     1     1     8     4
 -0.0146716249     1     1     8     6
 0.3084785515     1     1     8     8
 -0.0395845206     1     1     9     3
 -0.0303526738     1     1     9     7
 0.3135940674     1     1     9     9
 0.2045159761     1     1    10     5
 0.3949424877     1     1    10    10
 -0.9856970535     1     2     2     1
 -0.0069945022     1     2     2     4
 -0.0008398307     1     2     2     6
 -0.0022332306     1     2     2     8
 0.0310725373     1     2     3     3
 0.0082315877     1     2     3     7
 -0.0050959919     1     2     3     9
 -0.0672687105     1     2     4     1
 0.0357890307     1     2     4     4
 0.0052368665     1     2     4     6
 0.0075245802     1     2     4     8
 0.0407413735     1     2     5     5
 0.0163088806     1     2     5    10
 0.0992756800     1     2     6     1
 0.0049182645     1     2     6     4
 0.0010371441     1     2     6     6
 0.0011539267     1     2     6     8
 0.0060045455     1     2     7     3
 0.0021487072     1     2     7     7
 -0.0012278281     1     2     7     9
 -0.0493361382     1     2     8     1
 0.0054039035     1     2     8     4
 0.0007619863     1     2     8     6
 0.0021097535     1     2     8     8
 -0.0033557274     1     2     9     3
 -0.0010709159     1     2     9     7
 0.0008459767     1     2     9     9
 0.0122805461     1     2    10     5
 0.0073355670     1     2    10    10
 0.0016241989     1     3     2     7
 -0.0014227941     1     3     2     9
 -0.8732439974     1     3     3     1
 -0.0310725373     1     3     3     2
 -0.0106275186     1     3     3     4
 0.0035859554     1     3     3     6
 -0.0037002244     1     3     3     8
 -0.0006949599     1     3     4     7
 0.0028548734     1     3     4     9
 0.0015199370     1     3     6     7
 0.0003290834     1     3     6     9
 -0.1080090004     1     3     7     1
 -0.0060045455     1     3     7     2
 -0.0020734617     1     3     7     4
 0.0026636626     1     3     7     6
 -0.0014201466     1     3     7     8
 -0.0007687780     1     3     8     7
 -0.0007691092     1     3     8     9
 0.0395845206     1     3     9     1
 0.0033557274     1     3     9     2
 0.0010644506     1     3     9     4
 -0.0008452742     1     3     9     6
 -0.0010026998     1     3     9     8
 -0.0672687105     1     4     2     1
 0.0069945022     1     4     2     2
 -0.0001539687     1     4     2     6
 0.0015487944     1     4     2     8
 0.0106275186     1     4     3     3
 0.0015188206     1     4     3     7
 0.0017653433     1     4     3     9
 -0.9505250558     1     4     4     1
 -0.0357890307     1     4     4     2
 0.0068223920     1     4     4     6
 -0.0025091157     1     4     4     8
 0.0137494872     1     4     5     5
 0.0052196701     1     4     5    10
 -0.0522597614     1     4     6     1
 -0.0049182645     1     4     6     2
 0.0026098039     1     4     6     6
 0.0007287736     1     4     6     8
 0.0020734617     1     4     7     3
 0.0014625707     1     4     7     7
 -0.0007824522     1     4     7     9
 -0.1142592312     1     4     8     1
 -0.0054039035     1     4     8     2
 0.0025199615     1     4     8     6
 -0.0018243919     1     4     8     8
 -0.0010644506     1     4     9     3
 -0.0015044263     1     4     9     7
 -0.0001307553     1     4     9     9
 0.0042124967     1     4    10     5
 0.0022591667     1     4    10    10
 0.0027859517     1     5     2    10
 0.0006540437     1     5     4    10
 -0.9977480085     1     5     5     1
 -0.0407413735     1     5     5     2
 -0.0137494872     1     5     5     4
 0.0063949851     1     5     5     6
 -0.0072308384     1     5     5     8
 0.0021205544     1     5     6    10
 0.0001785673     1     5     8    10
 -0.2045159761     1     5    10     1
 -0.0122805461     1     5    10     2
 -0.0042124967     1     5    10     4
 0.0047888735     1     5    10     6
 -0.0027589896     1     5    10     8
 0.0992756800     1     6     2     1
 0.0008398307     1     6     2     2
 0.0001539687     1     6     2     4
 0.0004004524     1     6     2     8
 -0.0035859554     1     6     3     3
 -0.0011388303     1     6     3     7
 0.0011844681     1     6     3     9
 -0.0522597614     1     6     4     1
 -0.0052368665     1     6     4     2
 -0.0068223920     1     6     4     4
 -0.0017807198     1     6     4     8
 -0.0063949851     1     6     5     5
 -0.0025696427     1     6     5    10
 -0.2794183502     1     6     6     1
 -0.0010371441     1     6     6     2
 -0.0026098039     1     6     6     4
 -0.0004745791     1     6     6     8
 -0.0026636626     1     6     7     3
 -0.0006580188     1     6     7     7
 0.0003786055     1     6     7     9
 0.0146716249     1     6     8     1
 -0.0007619863     1     6     8     2
 -0.0025199615     1     6     8     4
 -0.0009709111     1     6     8     8
 0.0008452742     1     6     9     3
 0.0000530684     1     6     9     7
 -0.0001913961     1     6     9     9
 -0.0047888735     1     6    10     5
 -0.0022731247     1     6    10    10
 -0.0016241989     1     7     2     3
 -0.0001433280     1     7     2     9
 -0.1080090004     1     7     3     1
 -0.0082315877     1     7     3     2
 -0.0015188206     1     7     3     4
 0.0011388303     1     7     3     6
 -0.0006772677     1     7     3     8
 0.0006949599     1     7     4     3
 0.0007036680     1     7     4     9
 -0.0015199370     1     7     6     3
 0.0003250183     1     7     6     9
 -0.2408336042     1     7     7     1
 -0.0021487072     1     7     7     2
 -0.0014625707     1     7     7     4
 0.0006580188     1     7     7     6
 -0.0006004577     1     7     7     8
 0.0007687780     1     7     8     3
 -0.0003376682     1     7     8     9
 0.0303526738     1     7     9     1
 0.0010709159     1     7     9     2
 0.0015044263     1     7     9     4
 -0.0000530684     1     7     9     6
 -0.0000065346     1     7     9     8
 -0.0493361382     1     8     2     1
 0.0022332306     1     8     2     2
 -0.0015487944     1     8     2     4
 -0.0004004524     1     8     2     6
 0.0037002244     1     8     3     3
 0.0006772677     1     8     3     7
 0.0001734077     1     8     3     9
 -0.1142592312     1     8     4     1
 -0.0075245802     1     8     4     2
 0.0025091157     1     8     4     4
 0.0017807198     1     8     4     6
 0.0072308384     1     8     5     5
 0.0028813338     1     8     5    10
 0.0146716249     1     8     6     1
 -0.0011539267     1     8     6     2
 -0.0007287736     1     8     6     4
 0.0004745791     1     8     6     6
 0.0014201466     1     8     7     3
 0.0006004577     1     8     7     7
 -0.0003309596     1     8     7     9
 -0.3084785515     1     8     8     1
 -0.0021097535     1     8     8     2
 0.0018243919     1     8     8     4
 0.0009709111     1     8     8     6
 0.0010026998     1     8     9     3
 0.0000065346     1     8     9     7
 -0.0002349581     1     8     9     9
 0.0027589896     1     8    10     5
 0.0013161039     1     8    10    10
 0.0014227941     1     9     2     3
 0.0001433280     1     9     2     7
 0.0395845206     1     9     3     1
 0.0050959919     1     9     3     2
 -0.0017653433     1     9     3     4
 -0.0011844681     1     9     3     6
 -0.0001734077     1     9     3     8
 -0.0028548734     1     9     4     3
 -0.0007036680     1     9     4     7
 -0.0003290834     1     9     6     3
 -0.0003250183     1     9     6     7
 0.0303526738     1     9     7     1
 0.0012278281     1     9     7     2
 0.0007824522     1     9     7     4
 -0.0003786055     1     9     7     6
 0.0003309596     1     9     7     8
 0.0007691092     1     9     8     3
 0.0003376682     1     9     8     7
 -0.3135940674     1     9     9     1
 -0.0008459767     1     9     9     2
 0.0001307553     1     9     9     4
 0.0001913961     1     9     9     6
 0.0002349581     1     9     9     8
 -0.0027859517     1    10     2     5
 -0.0006540437     1    10     4     5
 -0.2045159761     1    10     5     1
 -0.0163088806     1    10     5     2
 -0.0052196701     1    10     5     4
 0.0025696427     1    10     5     6
 -0.0028813338     1    10     5     8
 -0.0021205544     1    10     6     5
 -0.0001785673     1    10     8     5
 -0.3949424877     1    10    10     1
 -0.0073355670     1    10    10     2
 -0.0022591667     1    10    10     4
 0.0022731247     1    10    10     6
 -0.0013161039     1    10    10     8
 -0.9856970535     2     1     1     2
 -0.0672687105     2     1     1     4
 0.0992756800     2     1     1     6
 -0.0493361382     2     1     1     8
 0.0310725373     2     1     3     3
 0.0060045455     2     1     3     7
 -0.0033557274     2     1     3     9
 -0.0069945022     2     1     4     2
 0.0357890307     2     1     4     4
 0.0049182645     2     1     4     6
 0.0054039035     2     1     4     8
 0.0407413735     2     1     5     5
 0.0122805461     2     1     5    10
 -0.0008398307     2     1     6     2
 0.0052368665     2     1     6     4
 0.0010371441     2     1     6     6
 0.0007619863     2     1     6     8
 0.0082315877     2     1     7     3
 0.0021487072     2     1     7     7
 -0.0010709159     2     1     7     9
 -0.0022332306     2     1     8     2
 0.0075245802     2     1     8     4
 0.0011539267     2     1     8     6
 0.0021097535     2     1     8     8
 -0.0050959919     2     1     9     3
 -0.0012278281     2     1     9     7
 0.0008459767     2     1     9     9
 0.0163088806     2     1    10     5
 0.0073355670     2     1    10    10
 0.9856970535     2     2     1     1
 0.0069945022     2     2     1     4
 0.0008398307     2     2     1     6
 0.0022332306     2     2     1     8
 0.5293816244     2     2     3     3
 0.0465547765     2     2     3     7
 -0.0055004806     2     2     3     9
 0.0069945022     2     2     4     1
 0.5507079438     2     2     4     4
 0.0227132763     2     2     4     6
 0.0500634059     2     2     4     8
 0.5778313207     2     2     5     5
 0.0871263439     2     2     5    10
 0.0008398307     2     2     6     1
 0.0227132763     2     2     6     4
 0.2551706406     2     2     6     6
 -0.0070083016     2     2     6     8
 0.0465547765     2     2     7     3
 0.2242087164     2     2     7     7
 -0.0222430726     2     2     7     9
 0.0022332306     2     2     8     1
 0.0500634059     2     2     8     4
 -0.0070083016     2     2     8     6
 0.2739425735     2     2     8     8
 -0.0055004806     2     2     9     3
 -0.0222430726     2     2     9     7
 0.2970293872     2     2     9     9
 0.0871263439     2     2    10     5
 0.3241457963     2     2    10    10
 -0.0016241989     2     3     1     7
 0.0014227941     2     3     1     9
 -0.0310725373     2     3     3     1
 -0.5293816244     2     3     3     2
 -0.0020349652     2     3     3     4
 0.0467232152     2     3     3     6
 -0.0236602955     2     3     3     8
 0.0054660165     2     3     4     7
 -0.0194878766     2     3     4     9
 -0.0246460041     2     3     6     7
 -0.0000047478     2     3     6     9
 -0.0082315877     2     3     7     1
 -0.0465547765     2     3     7     2
 0.0012384104     2     3     7     4
 -0.0174888145     2     3     7     6
 0.0030671019     2     3     7     8
 0.0070266781     2     3     8     7
 0.0154139809     2     3     8     9
 0.0050959919     2     3     9     1
 0.0055004806     2     3     9     2
 -0.0035306595     2     3     9     4
 -0.0003494502     2     3     9     6
 0.0176645251     2     3     9     8
 0.0672687105     2     4     1     1
 -0.0069945022     2     4     1     2
 0.0001539687     2     4     1     6
 -0.0015487944     2     4     1     8
 0.0020349652     2     4     3     3
 0.0044580683     2     4     3     7
 -0.0158938058     2     4     3     9
 -0.0357890307     2     4     4     1
 -0.5507079438     2     4     4     2
 0.0466151293     2     4     4     6
 -0.0166898618     2     4     4     8
 0.0043409709     2     4     5     5
 0.0018434221     2     4     5    10
 -0.0052368665     2     4     6     1
 -0.0227132763     2     4     6     2
 -0.0097802419     2     4     6     6
 -0.0158061452     2     4     6     8
 -0.0012384104     2     4     7     3
 -0.0092227130     2     4     7     7
 0.0078807514     2     4     7     9
 -0.0075245802     2     4     8     1
 -0.0500634059     2     4     8     2
 -0.0069764233     2     4     8     6
 0.0145652152     2     4     8     8
 0.0035306595     2     4     9     3
 0.0102434044     2     4     9     7
 0.0079004596     2     4     9     9
 0.0004781723     2     4    10     5
 0.0062264517     2     4    10    10
 -0.0027859517     2     5     1    10
 0.0007661763     2     5     4    10
 -0.0407413735     2     5     5     1
 -0.5778313207     2     5     5     2
 -0.0043409709     2     5     5     4
 0.0460287611     2     5     5     6
 -0.0118175858     2     5     5     8
 -0.0216194315     2     5     6    10
 -0.0003633405     2     5     8    10
 -0.0163088806     2     5    10     1
 -0.0871263439     2     5    10     2
 -0.0004781723     2     5    10     4
 -0.0088850689     2     5    10     6
 -0.0045907977     2     5    10     8
 -0.0992756800     2     6     1     1
 -0.0008398307     2     6     1     2
 -0.0001539687     2     6     1     4
 -0.0004004524     2     6     1     8
 -0.0467232152     2     6     3     3
 -0.0069365453     2     6     3     7
 -0.0000889690     2     6     3     9
 -0.0049182645     2     6     4     1
 -0.0227132763     2     6     4     2
 -0.0466151293     2     6     4     4
 -0.0084844904     2     6     4     8
 -0.0460287611     2     6     5     5
 -0.0121240556     2     6     5    10
 -0.0010371441     2     6     6     1
 -0.2551706406     2     6     6     2
 0.0097802419     2     6     6     4
 -0.0009712203     2     6     6     8
 0.0174888145     2     6     7     3
 -0.0032323683     2     6     7     7
 0.0035039219     2     6     7     9
 -0.0011539267     2     6     8     1
 0.0070083016     2     6     8     2
 0.0069764233     2     6     8     4
 -0.0065445850     2     6     8     8
 0.0003494502     2     6     9     3
 0.0018881230     2     6     9     7
 -0.0098312943     2     6     9     9
 0.0088850689     2     6    10     5
 -0.0109827773     2     6    10    10
 0.0016241989     2     7     1     3
 0.0001433280     2     7     1     9
 -0.0060045455     2     7     3     1
 -0.0465547765     2     7     3     2
 -0.0044580683     2     7     3     4
 0.0069365453     2     7     3     6
 -0.0037427679     2     7     3     8
 -0.0054660165     2     7     4     3
 -0.0021261811     2     7     4     9
 0.0246460041     2     7     6     3
 0.0016159899     2     7     6     9
 -0.0021487072     2     7     7     1
 -0.2242087164     2     7     7     2
 0.0092227130     2     7     7     4
 0.0032323683     2     7     7     6
 0.0000765666     2     7     7     8
 -0.0070266781     2     7     8     3
 0.0013730957     2     7     8     9
 0.0012278281     2     7     9     1
 0.0222430726     2     7     9     2
 -0.0102434044     2     7     9     4
 -0.0018881230     2     7     9     6
 0.0012555159     2     7     9     8
 0.0493361382     2     8     1     1
 -0.0022332306     2     8     1     2
 0.0015487944     2     8     1     4
 0.0004004524     2     8     1     6
 0.0236602955     2     8     3     3
 0.0037427679     2     8     3     7
 -0.0016744395     2     8     3     9
 -0.0054039035     2     8     4     1
 -0.0500634059     2     8     4     2
 0.0166898618     2     8     4     4
 0.0084844904     2     8     4     6
 0.0118175858     2     8     5     5
 0.0041727582     2     8     5    10
 -0.0007619863     2     8     6     1
 0.0070083016     2     8     6     2
 0.0158061452     2     8     6     4
 0.0009712203     2     8     6     6
 -0.0030671019     2     8     7     3
 -0.0000765666     2     8     7     7
 0.0001478167     2     8     7     9
 -0.0021097535     2     8     8     1
 -0.2739425735     2     8     8     2
 -0.0145652152     2     8     8     4
 0.0065445850     2     8     8     6
 -0.0176645251     2     8     9     3
 -0.0012555159     2     8     9     7
 0.0033565597     2     8     9     9
 0.0045907977     2     8    10     5
 0.0042435981     2     8    10    10
 -0.0014227941     2     9     1     3
 -0.0001433280     2     9     1     7
 0.0033557274     2     9     3     1
 0.0055004806     2     9     3     2
 0.0158938058     2     9     3     4
 0.0000889690     2     9     3     6
 0.0016744395     2     9     3     8
 0.0194878766     2     9     4     3
 0.0021261811     2     9     4     7
 0.0000047478     2     9     6     3
 -0.0016159899     2     9     6     7
 0.0010709159     2     9     7     1
 0.0222430726     2     9     7     2
 -0.0078807514     2     9     7     4
 -0.0035039219     2     9     7     6
 -0.0001478167     2     9     7     8
 -0.0154139809     2     9     8     3
 -0.0013730957     2     9     8     7
 -0.0008459767     2     9     9     1
 -0.2970293872     2     9     9     2
 -0.0079004596     2     9     9     4
 0.0098312943     2     9     9     6
 -0.0033565597     2     9     9     8
 0.0027859517     2    10     1     5
 -0.0007661763     2    10     4     5
 -0.0122805461     2    10     5     1
 -0.0871263439     2    10     5     2
 -0.0018434221     2    10     5     4
 0.0121240556     2    10     5     6
 -0.0041727582     2    10     5     8
 0.0216194315     2    10     6     5
 0.0003633405     2    10     8     5
 -0.0073355670     2    10    10     1
 -0.3241457963     2    10    10     2
 -0.0062264517     2    10    10     4
 0.0109827773     2    10    10     6
 -0.0042435981     2    10    10     8
 -0.8732439974     3     1     1     3
 -0.1080090004     3     1     1     7
 0.0395845206     3     1     1     9
 -0.0310725373     3     1     2     3
 -0.0060045455     3     1     2     7
 0.0033557274     3     1     2     9
 -0.0106275186     3     1     4     3
 -0.0020734617     3     1     4     7
 0.0010644506     3     1     4     9
 0.0035859554     3     1     6     3
 0.0026636626     3     1     6     7
 -0.0008452742     3     1     6     9
 0.0016241989     3     1     7     2
 -0.0006949599     3     1     7     4
 0.0015199370     3     1     7     6
 -0.0007687780     3     1     7     8
 -0.0037002244     3     1     8     3
 -0.0014201466     3     1     8     7
 -0.0010026998     3     1     8     9
 -0.0014227941     3     1     9     2
 0.0028548734     3     1     9     4
 0.0003290834     3     1     9     6
 -0.0007691092     3     1     9     8
 -0.0310725373     3     2     1     3
 -0.0082315877     3     2     1     7
 0.0050959919     3     2     1     9
 -0.5293816244     3     2     2     3
 -0.0465547765     3     2     2     7
 0.0055004806     3     2     2     9
 -0.0020349652     3     2     4     3
 0.0012384104     3     2     4     7
 -0.0035306595     3     2     4     9
 0.0467232152     3     2     6     3
 -0.0174888145     3     2     6     7
 -0.0003494502     3     2     6     9
 -0.0016241989     3     2     7     1
 0.0054660165     3     2     7     4
 -0.0246460041     3     2     7     6
 0.0070266781     3     2     7     8
 -0.0236602955     3     2     8     3
 0.0030671019     3     2     8     7
 0.0176645251     3     2     8     9
 0.0014227941     3     2     9     1
 -0.0194878766     3     2     9     4
 -0.0000047478     3     2     9     6
 0.0154139809     3     2     9     8
 0.8732439974     3     3     1     1
 0.0310725373     3     3     1     2
 0.0106275186     3     3     1     4
 -0.0035859554     3     3     1     6
 0.0037002244     3     3     1     8
 0.0310725373     3     3     2     1
 0.5293816244     3     3     2     2
 0.0020349652     3     3     2     4
 -0.0467232152     3     3     2     6
 0.0236602955     3     3     2     8
 0.0106275186     3     3     4     1
 0.0020349652     3     3     4     2
 0.5613046046     3     3     4     4
 0.0253728505     3     3     4     6
 0.0512511336     3     3     4     8
 0.5846603355     3     3     5     5
 0.0903686386     3     3     5    10
 -0.0035859554     3     3     6     1
 -0.0467232152     3     3     6     2
 0.0253728505     3     3     6     4
 0.2578900758     3     3     6     6
 -0.0081408439     3     3     6     8
 0.2188857440     3     3     7     7
 -0.0182070828     3     3     7     9
 0.0037002244     3     3     8     1
 0.0236602955     3     3     8     2
 0.0512511336     3     3     8     4
 -0.0081408439     3     3     8     6
 0.2686724797     3     3     8     8
 -0.0182070828     3     3     9     7
 0.2877571113     3     3     9     9
 0.0903686386     3     3    10     5
 0.3153089886     3     3    10    10
 -0.0106275186     3     4     1     3
 -0.0015188206     3     4     1     7
 -0.0017653433     3     4     1     9
 -0.0020349652     3     4     2     3
 -0.0044580683     3     4     2     7
 0.0158938058     3     4     2     9
 -0.5613046046     3     4     4     3
 -0.0556124376     3     4     4     7
 0.0190980352     3     4     4     9
 -0.0253728505     3     4     6     3
 0.0014082408     3     4     6     7
 -0.0009482980     3     4     6     9
 0.0006949599     3     4     7     1
 -0.0054660165     3     4     7     2
 0.0059608347     3     4     7     6
 0.0018865065     3     4     7     8
 -0.0512511336     3     4     8     3
 -0.0082220713     3     4     8     7
 0.0046258920     3     4     8     9
 -0.0028548734     3     4     9     1
 0.0194878766     3     4     9     2
 -0.0022414781     3     4     9     6
 -0.0025030247     3     4     9     8
 -0.5846603355     3     5     5     3
 -0.0566979471     3     5     5     7
 0.0137260702     3     5     5     9
 0.0024881148     3     5     7    10
 0.0012732685     3     5     9    10
 -0.0903686386     3     5    10     3
 -0.0139768907     3     5    10     7
 0.0071434601     3     5    10     9
 0.0035859554     3     6     1     3
 0.0011388303     3     6     1     7
 -0.0011844681     3     6     1     9
 0.0467232152     3     6     2     3
 0.0069365453     3     6     2     7
 0.0000889690     3     6     2     9
 -0.0253728505     3     6     4     3
 -0.0047037824     3     6     4     7
 0.0010230812     3     6     4     9
 -0.2578900758     3     6     6     3
 -0.0147953460     3     6     6     7
 -0.0073335659     3     6     6     9
 -0.0015199370     3     6     7     1
 0.0246460041     3     6     7     2
 -0.0059608347     3     6     7     4
 -0.0060817726     3     6     7     8
 0.0081408439     3     6     8     3
 0.0038671123     3     6     8     7
 -0.0023769989     3     6     8     9
 -0.0003290834     3     6     9     1
 0.0000047478     3     6     9     2
 0.0022414781     3     6     9     4
 0.0048766211     3     6     9     8
 0.1080090004     3     7     1     1
 0.0082315877     3     7     1     2
 0.0015188206     3     7     1     4
 -0.0011388303     3     7     1     6
 0.0006772677     3     7     1     8
 0.0060045455     3     7     2     1
 0.0465547765     3     7     2     2
 0.0044580683     3     7     2     4
 -0.0069365453     3     7     2     6
 0.0037427679     3     7     2     8
 0.0020734617     3     7     4     1
 -0.0012384104     3     7     4     2
 0.0556124376     3     7     4     4
 0.0047037824     3     7     4     6
 0.0100098155     3     7     4     8
 0.0566979471     3     7     5     5
 0.0157150867     3     7     5    10
 -0.0026636626     3     7     6     1
 0.0174888145     3     7     6     2
 -0.0014082408     3     7     6     4
 0.0147953460     3     7     6     6
 -0.0099361598     3     7     6     8
 -0.2188857440     3     7     7     3
 -0.0066945212     3     7     7     9
 0.0014201466     3     7     8     1
 -0.0030671019     3     7     8     2
 0.0082220713     3     7     8     4
 -0.0038671123     3     7     8     6
 0.0137835746     3     7     8     8
 0.0182070828     3     7     9     3
 0.0169344258     3     7     9     9
 0.0139768907     3     7    10     5
 0.0171856882     3     7    10    10
 -0.0037002244     3     8     1     3
 -0.0006772677     3     8     1     7
 -0.0001734077     3     8     1     9
 -0.0236602955     3     8     2     3
 -0.0037427679     3     8     2     7
 0.0016744395     3     8     2     9
 -0.0512511336     3     8     4     3
 -0.0100098155     3     8     4     7
 0.0065945000     3     8     4     9
 0.0081408439     3     8     6     3
 0.0099361598     3     8     6     7
 -0.0072130460     3     8     6     9
 0.0007687780     3     8     7     1
 -0.0070266781     3     8     7     2
 -0.0018865065     3     8     7     4
 0.0060817726     3     8     7     6
 -0.2686724797     3     8     8     3
 -0.0137835746     3     8     8     7
 0.0033068558     3     8     8     9
 0.0007691092     3     8     9     1
 -0.0154139809     3     8     9     2
 0.0025030247     3     8     9     4
 -0.0048766211     3     8     9     6
 -0.0395845206     3     9     1     1
 -0.0050959919     3     9     1     2
 0.0017653433     3     9     1     4
 0.0011844681     3     9     1     6
 0.0001734077     3     9     1     8
 -0.0033557274     3     9     2     1
 -0.0055004806     3     9     2     2
 -0.0158938058     3     9     2     4
 -0.0000889690     3     9     2     6
 -0.0016744395     3     9     2     8
 -0.0010644506     3     9     4     1
 0.0035306595     3     9     4     2
 -0.0190980352     3     9     4     4
 -0.0010230812     3     9     4     6
 -0.0065945000     3     9     4     8
 -0.0137260702     3     9     5     5
 -0.0050601321     3     9     5    10
 0.0008452742     3     9     6     1
 0.0003494502     3     9     6     2
 0.0009482980     3     9     6     4
 0.0073335659     3     9     6     6
 0.0072130460     3     9     6     8
 0.0182070828     3     9     7     3
 0.0066945212     3     9     7     7
 0.0010026998     3     9     8     1
 -0.0176645251     3     9     8     2
 -0.0046258920     3     9     8     4
 0.0023769989     3     9     8     6
 -0.0033068558     3     9     8     8
 -0.2877571113     3     9     9     3
 -0.0169344258     3     9     9     7
 -0.0071434601     3     9    10     5
 -0.0044382502     3     9    10    10
 -0.0903686386     3    10     5     3
 -0.0157150867     3    10     5     7
 0.0050601321     3    10     5     9
 -0.0024881148     3    10     7     5
 -0.0012732685     3    10     9     5
 -0.3153089886     3    10    10     3
 -0.0171856882     3    10    10     7
 0.0044382502     3    10    10     9
 -0.0672687105     4     1     1     2
 -0.9505250558     4     1     1     4
 -0.0522597614     4     1     1     6
 -0.1142592312     4     1     1     8
 0.0069945022     4     1     2     2
 -0.0357890307     4     1     2     4
 -0.0049182645     4     1     2     6
 -0.0054039035     4     1     2     8
 0.0106275186     4     1     3     3
 0.0020734617     4     1     3     7
 -0.0010644506     4     1     3     9
 0.0137494872     4     1     5     5
 0.0042124967     4     1     5    10
 -0.0001539687     4     1     6     2
 0.0068223920     4     1     6     4
 0.0026098039     4     1     6     6
 0.0025199615     4     1     6     8
 0.0015188206     4     1     7     3
 0.0014625707     4     1     7     7
 -0.0015044263     4     1     7     9
 0.0015487944     4     1     8     2
 -0.0025091157     4     1     8     4
 0.0007287736     4     1     8     6
 -0.0018243919     4     1     8     8
 0.0017653433     4     1     9     3
 -0.0007824522     4     1     9     7
 -0.0001307553     4     1     9     9
 0.0052196701     4     1    10     5
 0.0022591667     4     1    10    10
 0.0672687105     4     2     1     1
 -0.0357890307     4     2     1     4
 -0.0052368665     4     2     1     6
 -0.0075245802     4     2     1     8
 -0.0069945022     4     2     2     1
 -0.5507079438     4     2     2     4
 -0.0227132763     4     2     2     6
 -0.0500634059     4     2     2     8
 0.0020349652     4     2     3     3
 -0.0012384104     4     2     3     7
 0.0035306595     4     2     3     9
 0.0043409709     4     2     5     5
 0.0004781723     4     2     5    10
 0.0001539687     4     2     6     1
 0.0466151293     4     2     6     4
 -0.0097802419     4     2     6     6
 -0.0069764233     4     2     6     8
 0.0044580683     4     2     7     3
 -0.0092227130     4     2     7     7
 0.0102434044     4     2     7     9
 -0.0015487944     4     2     8     1
 -0.0166898618     4     2     8     4
 -0.0158061452     4     2     8     6
 0.0145652152     4     2     8     8
 -0.0158938058     4     2     9     3
 0.0078807514     4     2     9     7
 0.0079004596     4     2     9     9
 0.0018434221     4     2    10     5
 0.0062264517     4     2    10    10
 0.0006949599     4     3     1     7
 -0.0028548734     4     3     1     9
 -0.0054660165     4     3     2     7
 0.0194878766     4     3     2     9
 -0.0106275186     4     3     3     1