&FCI NORB= 17,NELEC= 10,MS2=0,
 ORBSYM=1,1,1,1,1,1,1,1,1,1,1,1,1,1,1,1,1
 ISYM=1,
&END
 0.9847960529     1     1     2     2
 0.0667383500     1     1     2     4
 -0.0887073911     1     1     2     6
 0.0538970688     1     1     2     8
 -0.1052353766     1     1     2    11
 -0.0351794272     1     1     2    13
 0.1087360904     1     1     2    15
 0.8715425304     1     1     3     3
 -0.0938597101     1     1     3     7
 -0.0480678470     1     1     3    10
 -0.1972293980     1     1     3    12
 0.0122020509     1     1     3    17
 0.0667383500     1     1     4     2
 0.9502448587     1     1     4     4
 0.0509038616     1     1     4     6
 0.1034731662     1     1     4     8
 0.1409247917     1     1     4    11
 0.0276102016     1     1     4    13
 0.0469955585     1     1     4    15
 0.9950277639     1     1     5     5
 -0.1775286054     1     1     5     9
 0.0460078514     1     1     5    16
 -0.0887073911     1     1     6     2
 0.0509038616     1     1     6     4
 0.2480414449     1     1     6     6
 -0.0195096108     1     1     6     8
 0.0962985711     1     1     6    11
 0.0297621604     1     1     6    13
 -0.0597265560     1     1     6    15
 0.0000000002     1     1     6    17
 -0.0938597101     1     1     7     3
 0.2102087248     1     1     7     7
 0.0000000002     1     1     7     8
 0.0242737332     1     1     7    10
 -0.0000000001     1     1     7    11
 0.1044595622     1     1     7    12
 -0.0000000007     1     1     7    15
 -0.0018268562     1     1     7    17
 0.0538970688     1     1     8     2
 0.1034731662     1     1     8     4
 -0.0195096108     1     1     8     6
 0.0000000002     1     1     8     7
 0.2758510229     1     1     8     8
 -0.0000000001     1     1     8    10
 0.0157560812     1     1     8    11
 -0.0000000002     1     1     8    12
 0.0122176293     1     1     8    13
 0.0415551956     1     1     8    15
 -0.0000000004     1     1     8    17
 -0.1775286054     1     1     9     5
 0.3212881055     1     1     9     9
 -0.0302714935     1     1     9    16
 -0.0480678470     1     1    10     3
 0.0242737332     1     1    10     7
 -0.0000000001     1     1    10     8
 0.2767502346     1     1    10    10
 0.0506932523     1     1    10    12
 0.0000000004     1     1    10    15
 -0.0446753515     1     1    10    17
 -0.1052353766     1     1    11     2
 0.1409247917     1     1    11     4
 0.0962985711     1     1    11     6
 -0.0000000001     1     1    11     7
 0.0157560812     1     1    11     8
 0.3623015722     1     1    11    11
 0.0000000001     1     1    11    12
 0.0178316619     1     1    11    13
 -0.0185910513     1     1    11    15
 0.0000000002     1     1    11    17
 -0.1972293980     1     1    12     3
 0.1044595622     1     1    12     7
 -0.0000000002     1     1    12     8
 0.0506932523     1     1    12    10
 0.0000000001     1     1    12    11
 0.3842591180     1     1    12    12
 0.0000000006     1     1    12    15
 -0.0254673253     1     1    12    17
 -0.0351794272     1     1    13     2
 0.0276102016     1     1    13     4
 0.0297621604     1     1    13     6
 0.0122176293     1     1    13     8
 0.0178316619     1     1    13    11
 -0.0000000001     1     1    13    12
 0.2982948517     1     1    13    13
 -0.0074931154     1     1    13    15
 0.2999507009     1     1    14    14
 0.1087360904     1     1    15     2
 0.0469955585     1     1    15     4
 -0.0597265560     1     1    15     6
 -0.0000000007     1     1    15     7
 0.0415551956     1     1    15     8
 0.0000000004     1     1    15    10
 -0.0185910513     1     1    15    11
 0.0000000006     1     1    15    12
 -0.0074931154     1     1    15    13
 0.3261016605     1     1    15    15
 0.0000000015     1     1    15    17
 0.0460078514     1     1    16     5
 -0.0302714935     1     1    16     9
 0.3046366310     1     1    16    16
 0.0122020509     1     1    17     3
 0.0000000002     1     1    17     6
 -0.0018268562     1     1    17     7
 -0.0000000004     1     1    17     8
 -0.0446753515     1     1    17    10
 0.0000000002     1     1    17    11
 -0.0254673253     1     1    17    12
 0.0000000016     1     1    17    15
 0.2752163487     1     1    17    17
 -0.9847960529     1     2     2     1
 0.0070673616     1     2     2     4
 0.0008752388     1     2     2     6
 0.0017229075     1     2     2     8
 0.0028607435     1     2     2    11
 0.0007281311     1     2     2    13
 0.0006485948     1     2     2    15
 -0.0312652408     1     2     3     3
 0.0067372152     1     2     3     7
 0.0049685719     1     2     3    10
 0.0168711413     1     2     3    12
 -0.0024258213     1     2     3    17
 -0.0667383500     1     2     4     1
 -0.0360907503     1     2     4     4
 -0.0046273776     1     2     4     6
 -0.0063230967     1     2     4     8
 -0.0124355456     1     2     4    11
 -0.0031637543     1     2     4    13
 -0.0020733508     1     2     4    15
 -0.0408301031     1     2     5     5
 0.0130256057     1     2     5     9
 -0.0043653539     1     2     5    16
 0.0887073911     1     2     6     1
 -0.0043852307     1     2     6     4
 -0.0007122353     1     2     6     6
 -0.0007876505     1     2     6     8
 -0.0020150188     1     2     6    11
 -0.0004778384     1     2     6    13
 -0.0001203777     1     2     6    15
 0.0049607925     1     2     7     3
 -0.0013688558     1     2     7     7
 0.0000000001     1     2     7     8
 -0.0009141788     1     2     7    10
 -0.0035941006     1     2     7    12
 -0.0000000002     1     2     7    15
 0.0004808928     1     2     7    17
 -0.0538970688     1     2     8     1
 -0.0044828338     1     2     8     4
 -0.0005053323     1     2     8     6
 0.0000000001     1     2     8     7
 -0.0014899121     1     2     8     8
 -0.0020939447     1     2     8    11
 -0.0002629061     1     2     8    13
 -0.0006273225     1     2     8    15
 -0.0000000001     1     2     8    17
 0.0099976060     1     2     9     5
 -0.0044827333     1     2     9     9
 0.0012273010     1     2     9    16
 0.0033926497     1     2    10     3
 -0.0008203887     1     2    10     7
 -0.0007872329     1     2    10    10
 -0.0021277051     1     2    10    12
 0.0000000001     1     2    10    15
 0.0001497537     1     2    10    17
 0.1052353766     1     2    11     1
 -0.0103811629     1     2    11     4
 -0.0017225653     1     2    11     6
 -0.0025052365     1     2    11     8
 -0.0047285134     1     2    11    11
 -0.0010093513     1     2    11    13
 -0.0007196986     1     2    11    15
 0.0000000001     1     2    11    17
 0.0116535576     1     2    12     3
 -0.0033604248     1     2    12     7
 -0.0021964651     1     2    12    10
 -0.0082451812     1     2    12    12
 0.0000000001     1     2    12    15
 0.0010618465     1     2    12    17
 0.0351794272     1     2    13     1
 -0.0023536720     1     2    13     4
 -0.0003501160     1     2    13     6
 -0.0003031300     1     2    13     8
 -0.0008711643     1     2    13    11
 -0.0000737260     1     2    13    13
 -0.0000434185     1     2    13    15
 0.0001898439     1     2    14    14
 -0.1087360904     1     2    15     1
 -0.0006164452     1     2    15     4
 0.0000979638     1     2    15     6
 -0.0000000002     1     2    15     7
 -0.0003891179     1     2    15     8
 0.0000000001     1     2    15    10
 -0.0001691479     1     2    15    11
 0.0000000002     1     2    15    12
 0.0000800540     1     2    15    13
 -0.0003827002     1     2    15    15
 0.0000000005     1     2    15    17
 -0.0028938262     1     2    16     5
 0.0010272944     1     2    16     9
 -0.0002430729     1     2    16    16
 -0.0014862392     1     2    17     3
 0.0003763369     1     2    17     7
 -0.0000000001     1     2    17     8
 0.0001045573     1     2    17    10
 0.0000000001     1     2    17    11
 0.0008771592     1     2    17    12
 0.0000000005     1     2    17    15
 -0.0000669411     1     2    17    17
 0.0012427511     1     3     2     7
 0.0012420166     1     3     2    10
 0.0040059592     1     3     2    12
 -0.0008082774     1     3     2    17
 -0.8715425304     1     3     3     1
 0.0312652408     1     3     3     2
 0.0105910206     1     3     3     4
 -0.0030052270     1     3     3     6
 0.0035914007     1     3     3     8
 -0.0011593156     1     3     3    11
 -0.0029571590     1     3     3    13
 0.0064682205     1     3     3    15
 -0.0004925654     1     3     4     7
 -0.0022146891     1     3     4    10
 -0.0015334769     1     3     4    12
 0.0019133695     1     3     4    17
 -0.0022056478     1     3     5    14
 0.0012403781     1     3     6     7
 -0.0000924611     1     3     6    10
 0.0011839538     1     3     6    12
 0.0003678761     1     3     6    17
 0.0938597101     1     3     7     1
 -0.0049607925     1     3     7     2
 -0.0017281364     1     3     7     4
 0.0020186944     1     3     7     6
 -0.0012629316     1     3     7     8
 0.0013575591     1     3     7    11
 0.0000084227     1     3     7    13
 -0.0013564584     1     3     7    15
 0.0000000001     1     3     7    17
 -0.0006714110     1     3     8     7
 0.0007640904     1     3     8    10
 -0.0017375273     1     3     8    12
 0.0000354003     1     3     8    17
 -0.0008047688     1     3     9    14
 0.0480678470     1     3    10     1
 -0.0033926497     1     3    10     2
 -0.0010936840     1     3    10     4
 0.0007893882     1     3    10     6
 0.0007285951     1     3    10     8
 0.0019872885     1     3    10    11
 0.0007060121     1     3    10    13
 -0.0008609643     1     3    10    15
 -0.0000000001     1     3    10    17
 0.0007909763     1     3    11     7
 0.0007392714     1     3    11    10
 0.0021361866     1     3    11    12
 -0.0000000001     1     3    11    15
 0.0004781024     1     3    11    17
 0.1972293980     1     3    12     1
 -0.0116535576     1     3    12     2
 -0.0040005023     1     3    12     4
 0.0032510103     1     3    12     6
 -0.0031000089     1     3    12     8
 0.0038621868     1     3    12    11
 0.0008243196     1     3    12    13
 -0.0043629700     1     3    12    15
 -0.0007430728     1     3    13     7
 -0.0000042944     1     3    13    10
 -0.0011027644     1     3    13    12
 -0.0013823305     1     3    13    17
 0.0001008809     1     3    14     5
 -0.0016611073     1     3    14     9
 0.0017006489     1     3    14    16
 -0.0000031256     1     3    15     7
 0.0000152881     1     3    15    10
 -0.0000000001     1     3    15    11
 -0.0009956263     1     3    15    12
 0.0000000001     1     3    15    15
 -0.0003634379     1     3    15    17
 0.0014400506     1     3    16    14
 -0.0122020509     1     3    17     1
 0.0014862392     1     3    17     2
 0.0002632447     1     3    17     4
 -0.0002343676     1     3    17     6
 0.0000000001     1     3    17     7
 -0.0001661768     1     3    17     8
 -0.0000000001     1     3    17    10
 -0.0005931964     1     3    17    11
 -0.0018114849     1     3    17    13
 0.0000018486     1     3    17    15
 -0.0000000003     1     3    17    17
 -0.0667383500     1     4     2     1
 -0.0070673616     1     4     2     2
 0.0002042847     1     4     2     6
 -0.0013308805     1     4     2     8
 -0.0010115866     1     4     2    11
 -0.0005468703     1     4     2    13
 -0.0013568340     1     4     2    15
 -0.0105910206     1     4     3     3
 0.0013644302     1     4     3     7
 -0.0010761806     1     4     3    10
 0.0027594611     1     4     3    12
 0.0016614329     1     4     3    17
 -0.9502448587     1     4     4     1
 0.0360907503     1     4     4     2
 -0.0057900838     1     4     4     6
 0.0026453523     1     4     4     8
 -0.0083547356     1     4     4    11
 -0.0003393122     1     4     4    13
 0.0076094420     1     4     4    15
 -0.0136207999     1     4     5     5
 0.0041712460     1     4     5     9
 0.0009952422     1     4     5    16
 -0.0509038616     1     4     6     1
 0.0043852307     1     4     6     2
 -0.0020462477     1     4     6     6
 -0.0005364168     1     4     6     8
 -0.0026168103     1     4     6    11
 -0.0006858214     1     4     6    13
 0.0010947740     1     4     6    15
 0.0000000001     1     4     6    17
 0.0017281364     1     4     7     3
 -0.0010119734     1     4     7     7
 0.0000000001     1     4     7     8
 -0.0008507407     1     4     7    10
 -0.0012406216     1     4     7    12
 -0.0000000004     1     4     7    15
 -0.0000223412     1     4     7    17
 -0.1034731662     1     4     8     1
 0.0044828338     1     4     8     2
 -0.0018992006     1     4     8     6
 0.0000000001     1     4     8     7
 0.0017019990     1     4     8     8
 -0.0000000001     1     4     8    10
 -0.0008317770     1     4     8    11
 -0.0000000001     1     4     8    12
 -0.0014669982     1     4     8    13
 0.0014763244     1     4     8    15
 -0.0000000003     1     4     8    17
 0.0034922469     1     4     9     5
 -0.0014796370     1     4     9     9
 0.0012839395     1     4     9    16
 0.0010936840     1     4    10     3
 -0.0012956486     1     4    10     7
 -0.0000000001     1     4    10     8
 0.0000396801     1     4    10    10
 -0.0026835583     1     4    10    12
 0.0000000003     1     4    10    15
 0.0013181454     1     4    10    17
 -0.1409247917     1     4    11     1
 0.0103811629     1     4    11     2
 -0.0035529806     1     4    11     6
 0.0015613698     1     4    11     8
 -0.0052112489     1     4    11    11
 -0.0017712504     1     4    11    13
 0.0032775303     1     4    11    15
 0.0000000001     1     4    11    17
 0.0040005023     1     4    12     3
 -0.0013203239     1     4    12     7
 -0.0000000001     1     4    12     8
 -0.0016451655     1     4    12    10
 -0.0034803035     1     4    12    12
 0.0000000004     1     4    12    15
 0.0003605487     1     4    12    17
 -0.0276102016     1     4    13     1
 0.0023536720     1     4    13     2
 -0.0011850450     1     4    13     6
 -0.0012219795     1     4    13     8
 -0.0024657751     1     4    13    11
 -0.0017490623     1     4    13    13
 0.0001750519     1     4    13    15
 -0.0015139178     1     4    14    14
 -0.0469955585     1     4    15     1
 0.0006164452     1     4    15     2
 -0.0002316064     1     4    15     6
 -0.0000000004     1     4    15     7
 0.0002702105     1     4    15     8
 0.0000000003     1     4    15    10
 0.0001227459     1     4    15    11
 0.0000000004     1     4    15    12
 -0.0005073544     1     4    15    13
 -0.0000968664     1     4    15    15
 0.0000000010     1     4    15    17
 -0.0010542203     1     4    16     5
 0.0021167795     1     4    16     9
 -0.0014840098     1     4    16    16
 -0.0002632447     1     4    17     3
 0.0000000001     1     4    17     6
 0.0003960589     1     4    17     7
 -0.0000000003     1     4    17     8
 0.0014634875     1     4    17    10
 0.0000000001     1     4    17    11
 0.0013636501     1     4    17    12
 0.0000000010     1     4    17    15
 -0.0007492842     1     4    17    17
 0.0019633815     1     5     2     9
 -0.0011605859     1     5     2    16
 -0.0024426920     1     5     3    14
 0.0004135685     1     5     4     9
 0.0022285914     1     5     4    16
 -0.9950277639     1     5     5     1
 0.0408301031     1     5     5     2
 0.0136207999     1     5     5     4
 -0.0053437995     1     5     5     6
 0.0064423312     1     5     5     8
 -0.0068791664     1     5     5    11
 -0.0020279865     1     5     5    13
 0.0068602054     1     5     5    15
 0.0017713580     1     5     6     9
 -0.0001477185     1     5     6    16
 -0.0005190467     1     5     7    14
 -0.0001944596     1     5     8     9
 -0.0003100067     1     5     8    16
 0.1775286054     1     5     9     1
 -0.0099976060     1     5     9     2
 -0.0034922469     1     5     9     4
 0.0035433892     1     5     9     6
 -0.0022646941     1     5     9     8
 0.0019241275     1     5     9    11
 0.0009109226     1     5     9    13
 -0.0049677560     1     5     9    15
 -0.0000520550     1     5    10    14
 -0.0004478098     1     5    11     9
 -0.0008383988     1     5    11    16
 -0.0006558605     1     5    12    14
 0.0002357825     1     5    13     9
 0.0001205652     1     5    13    16
 -0.0001008809     1     5    14     3
 -0.0010412178     1     5    14     7
 -0.0004041418     1     5    14    10
 -0.0019360444     1     5    14    12
 -0.0009930740     1     5    14    17
 -0.0028342604     1     5    15     9
 -0.0002286190     1     5    15    16
 -0.0460078514     1     5    16     1
 0.0028938262     1     5    16     2
 0.0010542203     1     5    16     4
 -0.0010802983     1     5    16     6
 -0.0001031510     1     5    16     8
 -0.0025265729     1     5    16    11
 -0.0003102566     1     5    16    13
 0.0003626008     1     5    16    15
 -0.0011446848     1     5    17    14
 0.0887073911     1     6     2     1
 -0.0008752388     1     6     2     2
 -0.0002042847     1     6     2     4
 -0.0002893028     1     6     2     8
 -0.0003102551     1     6     2    11
 -0.0001338362     1     6     2    13
 -0.0002006250     1     6     2    15
 0.0030052270     1     6     3     3
 -0.0007660452     1     6     3     7
 -0.0008898991     1     6     3    10
 -0.0020652479     1     6     3    12
 0.0006144274     1     6     3    17
 -0.0509038616     1     6     4     1
 0.0046273776     1     6     4     2
 0.0057900838     1     6     4     4
 0.0013569029     1     6     4     8
 0.0009488815     1     6     4    11
 0.0005022089     1     6     4    13
 0.0013223859     1     6     4    15
 0.0053437995     1     6     5     5
 -0.0017419940     1     6     5     9
 0.0009206627     1     6     5    16
 -0.2480414449     1     6     6     1
 0.0007122353     1     6     6     2
 0.0020462477     1     6     6     4
 0.0002985821     1     6     6     8
 0.0004162730     1     6     6    11
 0.0000844997     1     6     6    13
 0.0002543066     1     6     6    15
 -0.0020186944     1     6     7     3
 0.0003949445     1     6     7     7
 0.0002420545     1     6     7    10
 0.0011681711     1     6     7    12
 -0.0001725085     1     6     7    17
 0.0195096108     1     6     8     1
 0.0005053323     1     6     8     2
 0.0018992006     1     6     8     4
 0.0006625546     1     6     8     8
 0.0006620480     1     6     8    11
 -0.0000586549     1     6     8    13
 0.0003402121     1     6     8    15
 -0.0000000002     1     6     8    17
 -0.0035433892     1     6     9     5
 0.0012846221     1     6     9     9
 -0.0002576358     1     6     9    16
 -0.0007893882     1     6    10     3
 0.0000335029     1     6    10     7
 0.0001711729     1     6    10    10
 0.0001634386     1     6    10    12
 0.0000000001     1     6    10    15
 0.0001438649     1     6    10    17
 -0.0962985711     1     6    11     1
 0.0017225653     1     6    11     2
 0.0035529806     1     6    11     4
 0.0009555651     1     6    11     8
 0.0006337367     1     6    11    11
 0.0000574098     1     6    11    13
 0.0006893053     1     6    11    15
 -0.0032510103     1     6    12     3
 0.0007602534     1     6    12     7
 0.0004013684     1     6    12    10
 0.0018341453     1     6    12    12
 -0.0002400183     1     6    12    17
 -0.0297621604     1     6    13     1
 0.0003501160     1     6    13     2
 0.0011850450     1     6    13     4
 0.0000264939     1     6    13     8
 0.0000879950     1     6    13    11
 -0.0001778659     1     6    13    13
 0.0000741346     1     6    13    15
 -0.0002530730     1     6    14    14
 0.0597265560     1     6    15     1
 -0.0000979638     1     6    15     2
 0.0002316064     1     6    15     4
 -0.0000000001     1     6    15     7
 0.0001098794     1     6    15     8
 0.0000000001     1     6    15    10
 0.0001230459     1     6    15    11
 0.0000000001     1     6    15    12
 -0.0000610484     1     6    15    13
 0.0000118093     1     6    15    15
 0.0000000004     1     6    15    17
 0.0010802983     1     6    16     5
 -0.0001245263     1     6    16     9
 -0.0001035016     1     6    16    16
 -0.0000000002     1     6    17     1
 0.0002343676     1     6    17     3
 -0.0000000001     1     6    17     4
 -0.0000080772     1     6    17     7
 -0.0000000001     1     6    17     8
 0.0001868772     1     6    17    10
 0.0000428558     1     6    17    12
 -0.0000998078     1     6    17    17
 -0.0012427511     1     7     2     3
 -0.0000919558     1     7     2    10
 -0.0002217444     1     7     2    12
 0.0001004547     1     7     2    17
 0.0938597101     1     7     3     1
 -0.0067372152     1     7     3     2
 -0.0013644302     1     7     3     4
 0.0007660452     1     7     3     6
 -0.0005954909     1     7     3     8
 0.0005400582     1     7     3    11
 0.0007458013     1     7     3    13
 -0.0013425619     1     7     3    15
 0.0004925654     1     7     4     3
 0.0004469944     1     7     4    10
 0.0000821695     1     7     4    12
 -0.0004211005     1     7     4    17
 0.0005207452     1     7     5    14
 -0.0012403781     1     7     6     3
 0.0002082983     1     7     6    10
 0.0004064947     1     7     6    12
 0.0000000001     1     7     6    15
 -0.0001640324     1     7     6    17
 -0.2102087248     1     7     7     1
 0.0013688558     1     7     7     2
 0.0010119734     1     7     7     4
 -0.0003949445     1     7     7     6
 0.0004050525     1     7     7     8
 -0.0001273902     1     7     7    11
 0.0000380492     1     7     7    13
 0.0003646305     1     7     7    15
 -0.0000000002     1     7     8     1
 -0.0000000001     1     7     8     2
 0.0006714110     1     7     8     3
 -0.0000000001     1     7     8     4
 -0.0002762077     1     7     8    10
 0.0000211907     1     7     8    12
 -0.0000000002     1     7     8    15
 0.0000381440     1     7     8    17
 0.0001821531     1     7     9    14
 -0.0242737332     1     7    10     1
 0.0008203887     1     7    10     2
 0.0012956486     1     7    10     4
 -0.0000335029     1     7    10     6
 0.0000293924     1     7    10     8
 -0.0000691771     1     7    10    11
 -0.0000749481     1     7    10    13
 0.0002509166     1     7    10    15
 -0.0000000001     1     7    10    17
 0.0000000001     1     7    11     1
 -0.0007909763     1     7    11     3
 -0.0000463043     1     7    11    10
 -0.0000472335     1     7    11    12
 0.0000000001     1     7    11    15
 -0.0001589044     1     7    11    17
 -0.1044595622     1     7    12     1
 0.0033604248     1     7    12     2
 0.0013203239     1     7    12     4
 -0.0007602534     1     7    12     6
 0.0007958976     1     7    12     8
 -0.0008524170     1     7    12    11
 -0.0001902106     1     7    12    13
 0.0010874116     1     7    12    15
 0.0007430728     1     7    13     3
 -0.0001108278     1     7    13    10
 -0.0001562685     1     7    13    12
 0.0003592699     1     7    13    17
 0.0010412178     1     7    14     5
 0.0000074530     1     7    14     9
 -0.0002716614     1     7    14    16
 0.0000000007     1     7    15     1
 0.0000000002     1     7    15     2
 0.0000031256     1     7    15     3
 0.0000000004     1     7    15     4
 0.0000000001     1     7    15     6
 0.0000000001     1     7    15     8
 -0.0000047959     1     7    15    10
 -0.0000000001     1     7    15    11
 0.0002178841     1     7    15    12
 -0.0000000001     1     7    15    13
 0.0000000008     1     7    15    15
 0.0000815381     1     7    15    17
 -0.0003237320     1     7    16    14
 0.0018268562     1     7    17     1
 -0.0003763369     1     7    17     2
 -0.0000000001     1     7    17     3
 -0.0003960589     1     7    17     4
 0.0000080772     1     7    17     6
 -0.0000279405     1     7    17     8
 0.0000114491     1     7    17    11
 0.0000000001     1     7    17    12
 0.0003828670     1     7    17    13
 -0.0000206555     1     7    17    15
 -0.0000000001     1     7    17    17
 -0.0538970688     1     8     2     1
 -0.0017229075     1     8     2     2
 0.0013308805     1     8     2     4
 0.0002893028     1     8     2     6
 0.0004435853     1     8     2    11
 0.0000539884     1     8     2    13
 -0.0002675685     1     8     2    15
 -0.0035914007     1     8     3     3
 0.0005954909     1     8     3     7
 0.0000477884     1     8     3    10
 0.0014118687     1     8     3    12
 0.0001876457     1     8     3    17
 -0.1034731662     1     8     4     1
 0.0063230967     1     8     4     2
 -0.0026453523     1     8     4     4
 -0.0013569029     1     8     4     6
 -0.0024032972     1     8     4    11
 -0.0002391456     1     8     4    13
 0.0011917696     1     8     4    15
 -0.0064423312     1     8     5     5
 0.0020877557     1     8     5     9
 -0.0002116263     1     8     5    16
 0.0195096108     1     8     6     1
 0.0007876505     1     8     6     2
 0.0005364168     1     8     6     4
 -0.0002985821     1     8     6     6
 -0.0002947033     1     8     6    11
 -0.0000853862     1     8     6    13
 0.0002298794     1     8     6    15
 -0.0000000001     1     8     6    17
 -0.0000000002     1     8     7     1
 -0.0000000001     1     8     7     2
 0.0012629316     1     8     7     3
 -0.0000000001     1     8     7     4
 -0.0004050525     1     8     7     7
 -0.0003056939     1     8     7    10
 -0.0007759013     1     8     7    12
 -0.0000000003     1     8     7    15
 0.0000660266     1     8     7    17
 -0.2758510229     1     8     8     1
 0.0014899121     1     8     8     2
 -0.0017019990     1     8     8     4
 -0.0006625546     1     8     8     6
 -0.0009201755     1     8     8    11
 -0.0004449848     1     8     8    13
 0.0002460751     1     8     8    15
 -0.0000000002     1     8     8    17
 0.0022646941     1     8     9     5
 -0.0008536128     1     8     9     9
 0.0004152652     1     8     9    16
 0.0000000001     1     8    10     1
 -0.0007285951     1     8    10     3
 0.0000000001     1     8    10     4
 -0.0000293924     1     8    10     7
 0.0001500567     1     8    10    10
 0.0000096178     1     8    10    12
 0.0000000002     1     8    10    15
 0.0001651988     1     8    10    17
 -0.0157560812     1     8    11     1
 0.0025052365     1     8    11     2
 -0.0015613698     1     8    11     4
 -0.0009555651     1     8    11     6
 -0.0016774054     1     8    11    11
 -0.0004963935     1     8    11    13
 0.0005939229     1     8    11    15
 0.0000000001     1     8    11    17
 0.0000000002     1     8    12     1
 0.0031000089     1     8    12     3
 0.0000000001     1     8    12     4
 -0.0007958976     1     8    12     7
 -0.0006766140     1     8    12    10
 -0.0019980699     1     8    12    12
 0.0000000003     1     8    12    15
 0.0002358077     1     8    12    17
 -0.0122176293     1     8    13     1
 0.0003031300     1     8    13     2
 0.0012219795     1     8    13     4
 -0.0000264939     1     8    13     6
 0.0000224645     1     8    13    11
 -0.0001980438     1     8    13    13
 0.0000793498     1     8    13    15
 -0.0002641081     1     8    14    14
 -0.0415551956     1     8    15     1
 0.0003891179     1     8    15     2
 -0.0002702105     1     8    15     4
 -0.0001098794     1     8    15     6
 -0.0000000001     1     8    15     7
 0.0000000001     1     8    15    10
 -0.0001283235     1     8    15    11
 0.0000000001     1     8    15    12
 -0.0001267573     1     8    15    13
 -0.0000034929     1     8    15    15
 0.0000000004     1     8    15    17
 0.0001031510     1     8    16     5
 0.0002860596     1     8    16     9
 -0.0002295932     1     8    16    16
 0.0000000004     1     8    17     1
 0.0000000001     1     8    17     2
 0.0001661768     1     8    17     3
 0.0000000003     1     8    17     4
 0.0000000001     1     8    17     6
 0.0000279405     1     8    17     7
 0.0002330334     1     8    17    10
 0.0001398863     1     8    17    12
 0.0000000008     1     8    17    15
 -0.0001223139     1     8    17    17
 -0.0019633815     1     9     2     5
 0.0001948114     1     9     2    16
 0.0008647172     1     9     3    14
 -0.0004135685     1     9     4     5
 -0.0008347344     1     9     4    16
 0.1775286054     1     9     5     1
 -0.0130256057     1     9     5     2
 -0.0041712460     1     9     5     4
 0.0017419940     1     9     5     6
 -0.0020877557     1     9     5     8
 0.0023133862     1     9     5    11
 0.0006634135     1     9     5    13
 -0.0021365262     1     9     5    15
 -0.0017713580     1     9     6     5
 -0.0001323323     1     9     6    16
 0.0001748369     1     9     7    14
 0.0001944596     1     9     8     5
 0.0001286596     1     9     8    16
 -0.3212881055     1     9     9     1
 0.0044827333     1     9     9     2
 0.0014796370     1     9     9     4
 -0.0012846221     1     9     9     6
 0.0008536128     1     9     9     8
 -0.0007485074     1     9     9    11
 -0.0003418426     1     9     9    13
 0.0018246124     1     9     9    15
 0.0000110129     1     9    10    14
 0.0004478098     1     9    11     5
 0.0003259130     1     9    11    16
 0.0002200245     1     9    12    14
 -0.0002357825     1     9    13     5
 -0.0000680075     1     9    13    16
 0.0016611073     1     9    14     3
 -0.0000074530     1     9    14     7
 -0.0001059628     1     9    14    10
 -0.0002162956     1     9    14    12
 0.0004384078     1     9    14    17
 0.0028342604     1     9    15     5
 0.0003665636     1     9    15    16
 0.0302714935     1     9    16     1
 -0.0010272944     1     9    16     2
 -0.0021167795     1     9    16     4
 0.0001245263     1     9    16     6
 -0.0002860596     1     9    16     8