&FCI NORB= 11,NELEC= 10,MS2=0,
 ORBSYM=1,1,1,1,1,1,1,1,1,1,1
 ISYM=1,
&END
 0.9851457721     1     1     2     2
 0.0673456737     1     1     2     4
 -0.1020720472     1     1     2     6
 -0.0508670663     1     1     2     8
 -0.1061099799     1     1     2    11
 0.8732441819     1     1     3     3
 0.1118591840     1     1     3     7
 -0.0408577992     1     1     3     9
 0.0673456737     1     1     4     2
 0.9515020627     1     1     4     4
 0.0550713096     1     1     4     6
 -0.1168348373     1     1     4     8
 0.1517309571     1     1     4    11
 0.9977499670     1     1     5     5
 -0.2114572176     1     1     5    10
 -0.1020720472     1     1     6     2
 0.0550713096     1     1     6     4
 0.2794173924     1     1     6     6
 0.0146716354     1     1     6     8
 0.1063410035     1     1     6    11
 0.1118591840     1     1     7     3
 0.2408336166     1     1     7     7
 -0.0303526502     1     1     7     9
 -0.0508670663     1     1     8     2
 -0.1168348373     1     1     8     4
 0.0146716354     1     1     8     6
 0.3084777740     1     1     8     8
 -0.0208804697     1     1     8    11
 -0.0408577992     1     1     9     3
 -0.0303526502     1     1     9     7
 0.3135940230     1     1     9     9
 -0.2114572176     1     1    10     5
 0.3949416198     1     1    10    10
 -0.1061099799     1     1    11     2
 0.1517309571     1     1    11     4
 0.1063410035     1     1    11     6
 -0.0208804697     1     1    11     8
 0.4224257622     1     1    11    11
 -0.9851457721     1     2     2     1
 -0.0069719873     1     2     2     4
 -0.0009092070     1     2     2     6
 0.0021667099     1     2     2     8
 -0.0032641305     1     2     2    11
 0.0310786743     1     2     3     3
 0.0083375334     1     2     3     7
 -0.0050781293     1     2     3     9
 -0.0673456737     1     2     4     1
 0.0358627151     1     2     4     4
 0.0053026298     1     2     4     6
 -0.0075471331     1     2     4     8
 0.0141500331     1     2     4    11
 0.0407383824     1     2     5     5
 -0.0165326511     1     2     5    10
 0.1020720472     1     2     6     1
 0.0050743566     1     2     6     4
 0.0010347638     1     2     6     6
 -0.0011750432     1     2     6     8
 0.0027852766     1     2     6    11
 0.0061292425     1     2     7     3
 0.0021466060     1     2     7     7
 -0.0012238302     1     2     7     9
 0.0508670663     1     2     8     1
 -0.0054112300     1     2     8     4
 -0.0007709764     1     2     8     6
 0.0020945493     1     2     8     8
 -0.0030342307     1     2     8    11
 -0.0033474800     1     2     9     3
 -0.0010711213     1     2     9     7
 0.0008456608     1     2     9     9
 -0.0125496530     1     2    10     5
 0.0073294615     1     2    10    10
 0.1061099799     1     2    11     1
 0.0116915450     1     2    11     4
 0.0023290319     1     2    11     6
 -0.0035404883     1     2    11     8
 0.0062573390     1     2    11    11
 0.0016235101     1     3     2     7
 -0.0014202260     1     3     2     9
 -0.8732441819     1     3     3     1
 -0.0310786743     1     3     3     2
 -0.0106209656     1     3     3     4
 0.0036007566     1     3     3     6
 0.0037211091     1     3     3     8
 0.0002588987     1     3     3    11
 -0.0006882248     1     3     4     7
 0.0028415971     1     3     4     9
 0.0015207792     1     3     6     7
 0.0003289095     1     3     6     9
 -0.1118591840     1     3     7     1
 -0.0061292425     1     3     7     2
 -0.0021863110     1     3     7     4
 0.0026747021     1     3     7     6
 0.0014465726     1     3     7     8
 0.0016127003     1     3     7    11
 0.0007684783     1     3     8     7
 0.0007700401     1     3     8     9
 0.0408577992     1     3     9     1
 0.0033474800     1     3     9     2
 0.0010646222     1     3     9     4
 -0.0008470564     1     3     9     6
 0.0010004036     1     3     9     8
 -0.0025482357     1     3     9    11
 0.0010750165     1     3    11     7
 -0.0009638430     1     3    11     9
 -0.0673456737     1     4     2     1
 0.0069719873     1     4     2     2
 -0.0002299254     1     4     2     6
 -0.0015550063     1     4     2     8
 0.0014068717     1     4     2    11
 0.0106209656     1     4     3     3
 0.0016427995     1     4     3     7
 0.0017239212     1     4     3     9
 -0.9515020627     1     4     4     1
 -0.0358627151     1     4     4     2
 0.0068933296     1     4     4     6
 0.0024147611     1     4     4     8
 0.0094824780     1     4     4    11
 0.0136912738     1     4     5     5
 -0.0054408827     1     4     5    10
 -0.0550713096     1     4     6     1
 -0.0050743566     1     4     6     2
 0.0026131187     1     4     6     6
 -0.0007119750     1     4     6     8
 0.0031421758     1     4     6    11
 0.0021863110     1     4     7     3
 0.0014640581     1     4     7     7
 -0.0007874753     1     4     7     9
 0.1168348373     1     4     8     1
 0.0054112300     1     4     8     2
 -0.0025309795     1     4     8     6
 -0.0018382096     1     4     8     8
 -0.0009049675     1     4     8    11
 -0.0010646222     1     4     9     3
 -0.0015018949     1     4     9     7
 -0.0001355156     1     4     9     9
 -0.0045237258     1     4    10     5
 0.0022808409     1     4    10    10
 -0.1517309571     1     4    11     1
 -0.0116915450     1     4    11     2
 0.0044738067     1     4    11     6
 0.0020764658     1     4    11     8
 0.0062005698     1     4    11    11
 -0.0027568898     1     5     2    10
 -0.0006684690     1     5     4    10
 -0.9977499670     1     5     5     1
 -0.0407383824     1     5     5     2
 -0.0136912738     1     5     5     4
 0.0064312188     1     5     5     6
 0.0072645281     1     5     5     8
 0.0076730327     1     5     5    11
 -0.0021137830     1     5     6    10
 0.0001815898     1     5     8    10
 0.2114572176     1     5    10     1
 0.0125496530     1     5    10     2
 0.0045237258     1     5    10     4
 -0.0048073518     1     5    10     6
 -0.0028122649     1     5    10     8
 -0.0025116203     1     5    10    11
 0.0008326664     1     5    11    10
 0.1020720472     1     6     2     1
 0.0009092070     1     6     2     2
 0.0002299254     1     6     2     4
 -0.0004069633     1     6     2     8
 0.0004831814     1     6     2    11
 -0.0036007566     1     6     3     3
 -0.0011517741     1     6     3     7
 0.0011665546     1     6     3     9
 -0.0550713096     1     6     4     1
 -0.0053026298     1     6     4     2
 -0.0068933296     1     6     4     4
 0.0017817203     1     6     4     8
 -0.0013512825     1     6     4    11
 -0.0064312188     1     6     5     5
 0.0026072679     1     6     5    10
 -0.2794173924     1     6     6     1
 -0.0010347638     1     6     6     2
 -0.0026131187     1     6     6     4
 0.0004758855     1     6     6     8
 -0.0006363397     1     6     6    11
 -0.0026747021     1     6     7     3
 -0.0006586263     1     6     7     7
 0.0003758402     1     6     7     9
 -0.0146716354     1     6     8     1
 0.0007709764     1     6     8     2
 0.0025309795     1     6     8     4
 -0.0009722183     1     6     8     8
 0.0010544154     1     6     8    11
 0.0008470564     1     6     9     3
 0.0000537686     1     6     9     7
 -0.0001947386     1     6     9     9
 0.0048073518     1     6    10     5
 -0.0022754396     1     6    10    10
 -0.1063410035     1     6    11     1
 -0.0023290319     1     6    11     2
 -0.0044738067     1     6    11     4
 0.0014806674     1     6    11     8
 -0.0009624279     1     6    11    11
 -0.0016235101     1     7     2     3
 -0.0001464009     1     7     2     9
 -0.1118591840     1     7     3     1
 -0.0083375334     1     7     3     2
 -0.0016427995     1     7     3     4
 0.0011517741     1     7     3     6
 0.0007280808     1     7     3     8
 0.0005031500     1     7     3    11
 0.0006882248     1     7     4     3
 0.0007088640     1     7     4     9
 -0.0015207792     1     7     6     3
 0.0003223764     1     7     6     9
 -0.2408336166     1     7     7     1
 -0.0021466060     1     7     7     2
 -0.0014640581     1     7     7     4
 0.0006586263     1     7     7     6
 0.0006014694     1     7     7     8
 0.0001866673     1     7     7    11
 -0.0007684783     1     7     8     3
 0.0003368704     1     7     8     9
 0.0303526502     1     7     9     1
 0.0010711213     1     7     9     2
 0.0015018949     1     7     9     4
 -0.0000537686     1     7     9     6
 0.0000048058     1     7     9     8
 -0.0002232747     1     7     9    11
 -0.0010750165     1     7    11     3
 -0.0001055616     1     7    11     9
 0.0508670663     1     8     2     1
 -0.0021667099     1     8     2     2
 0.0015550063     1     8     2     4
 0.0004069633     1     8     2     6
 0.0005438229     1     8     2    11
 -0.0037211091     1     8     3     3
 -0.0007280808     1     8     3     7
 -0.0001659180     1     8     3     9
 0.1168348373     1     8     4     1
 0.0075471331     1     8     4     2
 -0.0024147611     1     8     4     4
 -0.0017817203     1     8     4     6
 -0.0029352356     1     8     4    11
 -0.0072645281     1     8     5     5
 0.0029801410     1     8     5    10
 -0.0146716354     1     8     6     1
 0.0011750432     1     8     6     2
 0.0007119750     1     8     6     4
 -0.0004758855     1     8     6     6
 -0.0004272276     1     8     6    11
 -0.0014465726     1     8     7     3
 -0.0006014694     1     8     7     7
 0.0003314871     1     8     7     9
 -0.3084777740     1     8     8     1
 -0.0020945493     1     8     8     2
 0.0018382096     1     8     8     4
 0.0009722183     1     8     8     6
 0.0011702805     1     8     8    11
 -0.0010004036     1     8     9     3
 -0.0000048058     1     8     9     7
 0.0002304442     1     8     9     9
 0.0028122649     1     8    10     5
 -0.0013215436     1     8    10    10
 0.0208804697     1     8    11     1
 0.0035404883     1     8    11     2
 -0.0020764658     1     8    11     4
 -0.0014806674     1     8    11     6
 -0.0024795764     1     8    11    11
 0.0014202260     1     9     2     3
 0.0001464009     1     9     2     7
 0.0408577992     1     9     3     1
 0.0050781293     1     9     3     2
 -0.0017239212     1     9     3     4
 -0.0011665546     1     9     3     6
 0.0001659180     1     9     3     8
 -0.0015512858     1     9     3    11
 -0.0028415971     1     9     4     3
 -0.0007088640     1     9     4     7
 -0.0003289095     1     9     6     3
 -0.0003223764     1     9     6     7
 0.0303526502     1     9     7     1
 0.0012238302     1     9     7     2
 0.0007874753     1     9     7     4
 -0.0003758402     1     9     7     6
 -0.0003314871     1     9     7     8
 -0.0001178003     1     9     7    11
 -0.0007700401     1     9     8     3
 -0.0003368704     1     9     8     7
 -0.3135940230     1     9     9     1
 -0.0008456608     1     9     9     2
 0.0001355156     1     9     9     4
 0.0001947386     1     9     9     6
 -0.0002304442     1     9     9     8
 0.0005690444     1     9     9    11
 0.0009638430     1     9    11     3
 0.0001055616     1     9    11     7
 0.0027568898     1    10     2     5
 0.0006684690     1    10     4     5
 0.2114572176     1    10     5     1
 0.0165326511     1    10     5     2
 0.0054408827     1    10     5     4
 -0.0026072679     1    10     5     6
 -0.0029801410     1    10     5     8
 -0.0031746926     1    10     5    11
 0.0021137830     1    10     6     5
 -0.0001815898     1    10     8     5
 -0.3949416198     1    10    10     1
 -0.0073294615     1    10    10     2
 -0.0022808409     1    10    10     4
 0.0022754396     1    10    10     6
 0.0013215436     1    10    10     8
 0.0013190982     1    10    10    11
 -0.0008326664     1    10    11     5
 0.1061099799     1    11     2     1
 0.0032641305     1    11     2     2
 -0.0014068717     1    11     2     4
 -0.0004831814     1    11     2     6
 -0.0005438229     1    11     2     8
 -0.0002588987     1    11     3     3
 -0.0005031500     1    11     3     7
 0.0015512858     1    11     3     9
 -0.1517309571     1    11     4     1
 -0.0141500331     1    11     4     2
 -0.0094824780     1    11     4     4
 0.0013512825     1    11     4     6
 0.0029352356     1    11     4     8
 -0.0076730327     1    11     5     5
 0.0031746926     1    11     5    10
 -0.1063410035     1    11     6     1
 -0.0027852766     1    11     6     2
 -0.0031421758     1    11     6     4
 0.0006363397     1    11     6     6
 0.0004272276     1    11     6     8
 -0.0016127003     1    11     7     3
 -0.0001866673     1    11     7     7
 0.0001178003     1    11     7     9
 0.0208804697     1    11     8     1
 0.0030342307     1    11     8     2
 0.0009049675     1    11     8     4
 -0.0010544154     1    11     8     6
 -0.0011702805     1    11     8     8
 0.0025482357     1    11     9     3
 0.0002232747     1    11     9     7
 -0.0005690444     1    11     9     9
 0.0025116203     1    11    10     5
 -0.0013190982     1    11    10    10
 -0.4224257622     1    11    11     1
 -0.0062573390     1    11    11     2
 -0.0062005698     1    11    11     4
 0.0009624279     1    11    11     6
 0.0024795764     1    11    11     8
 -0.9851457721     2     1     1     2
 -0.0673456737     2     1     1     4
 0.1020720472     2     1     1     6
 0.0508670663     2     1     1     8
 0.1061099799     2     1     1    11
 0.0310786743     2     1     3     3
 0.0061292425     2     1     3     7
 -0.0033474800     2     1     3     9
 -0.0069719873     2     1     4     2
 0.0358627151     2     1     4     4
 0.0050743566     2     1     4     6
 -0.0054112300     2     1     4     8
 0.0116915450     2     1     4    11
 0.0407383824     2     1     5     5
 -0.0125496530     2     1     5    10
 -0.0009092070     2     1     6     2
 0.0053026298     2     1     6     4
 0.0010347638     2     1     6     6
 -0.0007709764     2     1     6     8
 0.0023290319     2     1     6    11
 0.0083375334     2     1     7     3
 0.0021466060     2     1     7     7
 -0.0010711213     2     1     7     9
 0.0021667099     2     1     8     2
 -0.0075471331     2     1     8     4
 -0.0011750432     2     1     8     6
 0.0020945493     2     1     8     8
 -0.0035404883     2     1     8    11
 -0.0050781293     2     1     9     3
 -0.0012238302     2     1     9     7
 0.0008456608     2     1     9     9
 -0.0165326511     2     1    10     5
 0.0073294615     2     1    10    10
 -0.0032641305     2     1    11     2
 0.0141500331     2     1    11     4
 0.0027852766     2     1    11     6
 -0.0030342307     2     1    11     8
 0.0062573390     2     1    11    11
 0.9851457721     2     2     1     1
 0.0069719873     2     2     1     4
 0.0009092070     2     2     1     6
 -0.0021667099     2     2     1     8
 0.0032641305     2     2     1    11
 0.5291292736     2     2     3     3
 0.0479657839     2     2     3     7
 -0.0063721855     2     2     3     9
 0.0069719873     2     2     4     1
 0.5509266411     2     2     4     4
 0.0243444352     2     2     4     6
 -0.0507484502     2     2     4     8
 0.0595333603     2     2     4    11
 0.5777346289     2     2     5     5
 -0.0896847038     2     2     5    10
 0.0009092070     2     2     6     1
 0.0243444352     2     2     6     4
 0.2549130574     2     2     6     6
 0.0068970096     2     2     6     8
 0.0675960580     2     2     6    11
 0.0479657839     2     2     7     3
 0.2241718223     2     2     7     7
 -0.0222406758     2     2     7     9
 -0.0021667099     2     2     8     1
 -0.0507484502     2     2     8     4
 0.0068970096     2     2     8     6
 0.2738156483     2     2     8     8
 -0.0013854122     2     2     8    11
 -0.0063721855     2     2     9     3
 -0.0222406758     2     2     9     7
 0.2970026826     2     2     9     9
 -0.0896847038     2     2    10     5
 0.3240007038     2     2    10    10
 0.0032641305     2     2    11     1
 0.0595333603     2     2    11     4
 0.0675960580     2     2    11     6
 -0.0013854122     2     2    11     8
 0.3473561437     2     2    11    11
 -0.0016235101     2     3     1     7
 0.0014202260     2     3     1     9
 -0.0310786743     2     3     3     1
 -0.5291292736     2     3     3     2
 -0.0019580506     2     3     3     4
 0.0478603058     2     3     3     6
 0.0243382735     2     3     3     8
 0.0601810738     2     3     3    11
 0.0055048295     2     3     4     7
 -0.0197462492     2     3     4     9
 -0.0246785767     2     3     6     7
 -0.0000313498     2     3     6     9
 -0.0083375334     2     3     7     1
 -0.0479657839     2     3     7     2
 0.0007908593     2     3     7     4
 -0.0172675168     2     3     7     6
 -0.0029099704     2     3     7     8
 -0.0044751964     2     3     7    11
 -0.0070233619     2     3     8     7
 -0.0154624306     2     3     8     9
 0.0050781293     2     3     9     1
 0.0063721855     2     3     9     2
 -0.0039380064     2     3     9     4
 -0.0004800104     2     3     9     6
 -0.0177355540     2     3     9     8
 0.0184932701     2     3     9    11
 -0.0137422743     2     3    11     7
 0.0175303639     2     3    11     9
 0.0673456737     2     4     1     1
 -0.0069719873     2     4     1     2
 0.0002299254     2     4     1     6
 0.0015550063     2     4     1     8
 -0.0014068717     2     4     1    11
 0.0019580506     2     4     3     3
 0.0048697753     2     4     3     7
 -0.0158065667     2     4     3     9
 -0.0358627151     2     4     4     1
 -0.5509266411     2     4     4     2
 0.0474721618     2     4     4     6
 0.0167133457     2     4     4     8
 0.0453117689     2     4     4    11
 0.0042418974     2     4     5     5
 -0.0023992817     2     4     5    10
 -0.0053026298     2     4     6     1
 -0.0243444352     2     4     6     2
 -0.0095513440     2     4     6     6
 0.0159011581     2     4     6     8
 -0.0083650049     2     4     6    11
 -0.0007908593     2     4     7     3
 -0.0091596502     2     4     7     7
 0.0078779616     2     4     7     9
 0.0075471331     2     4     8     1
 0.0507484502     2     4     8     2
 0.0068142881     2     4     8     6
 0.0145059264     2     4     8     8
 -0.0190323581     2     4     8    11
 0.0039380064     2     4     9     3
 0.0102457187     2     4     9     7
 0.0079541176     2     4     9     9
 -0.0014339201     2     4    10     5
 0.0064246825     2     4    10    10
 -0.0141500331     2     4    11     1
 -0.0595333603     2     4    11     2
 -0.0029708058     2     4    11     6
 -0.0071640789     2     4    11     8
 -0.0060809900     2     4    11    11
 0.0027568898     2     5     1    10
 -0.0007164732     2     5     4    10
 -0.0407383824     2     5     5     1
 -0.5777346289     2     5     5     2
 -0.0042418974     2     5     5     4
 0.0471956915     2     5     5     6
 0.0124377452     2     5     5     8
 0.0351656735     2     5     5    11
 0.0215999954     2     5     6    10
 -0.0003754469     2     5     8    10
 0.0165326511     2     5    10     1
 0.0896847038     2     5    10     2
 0.0014339201     2     5    10     4
 0.0084101897     2     5    10     6
 -0.0049144081     2     5    10     8
 -0.0168257590     2     5    10    11
 -0.0045984975     2     5    11    10
 -0.1020720472     2     6     1     1
 -0.0009092070     2     6     1     2
 -0.0002299254     2     6     1     4
 0.0004069633     2     6     1     8
 -0.0004831814     2     6     1    11
 -0.0478603058     2     6     3     3
 -0.0070277115     2     6     3     7
 0.0001985945     2     6     3     9
 -0.0050743566     2     6     4     1
 -0.0243444352     2     6     4     2
 -0.0474721618     2     6     4     4
 0.0085935061     2     6     4     8
 -0.0049691751     2     6     4    11
 -0.0471956915     2     6     5     5
 0.0125134090     2     6     5    10
 -0.0010347638     2     6     6     1
 -0.2549130574     2     6     6     2
 0.0095513440     2     6     6     4
 0.0009496874     2     6     6     8
 -0.0033346254     2     6     6    11
 0.0172675168     2     6     7     3
 -0.0031621103     2     6     7     7
 0.0035998343     2     6     7     9
 0.0011750432     2     6     8     1
 -0.0068970096     2     6     8     2
 -0.0068142881     2     6     8     4
 -0.0065726000     2     6     8     8
 0.0002769899     2     6     8    11
 0.0004800104     2     6     9     3
 0.0018987417     2     6     9     7
 -0.0098873944     2     6     9     9
 -0.0084101897     2     6    10     5
 -0.0111390527     2     6    10    10
 -0.0027852766     2     6    11     1
 -0.0675960580     2     6    11     2
 0.0029708058     2     6    11     4
 0.0012541657     2     6    11     8
 -0.0097971210     2     6    11    11
 0.0016235101     2     7     1     3
 0.0001464009     2     7     1     9
 -0.0061292425     2     7     3     1
 -0.0479657839     2     7     3     2
 -0.0048697753     2     7     3     4
 0.0070277115     2     7     3     6
 0.0039205814     2     7     3     8
 0.0087339289     2     7     3    11
 -0.0055048295     2     7     4     3
 -0.0021792101     2     7     4     9
 0.0246785767     2     7     6     3
 0.0016994223     2     7     6     9
 -0.0021466060     2     7     7     1
 -0.2241718223     2     7     7     2
 0.0091596502     2     7     7     4
 0.0031621103     2     7     7     6
 -0.0000782054     2     7     7     8
 -0.0007259775     2     7     7    11
 0.0070233619     2     7     8     3
 -0.0013863800     2     7     8     9
 0.0012238302     2     7     9     1
 0.0222406758     2     7     9     2
 -0.0102457187     2     7     9     4
 -0.0018987417     2     7     9     6
 -0.0012957956     2     7     9     8
 -0.0004429575     2     7     9    11
 0.0137422743     2     7    11     3
 0.0021177700     2     7    11     9
 -0.0508670663     2     8     1     1
 0.0021667099     2     8     1     2
 -0.0015550063     2     8     1     4
 -0.0004069633     2     8     1     6
 -0.0005438229     2     8     1    11
 -0.0243382735     2     8     3     3
 -0.0039205814     2     8     3     7
 0.0017574118     2     8     3     9
 0.0054112300     2     8     4     1
 0.0507484502     2     8     4     2
 -0.0167133457     2     8     4     4
 -0.0085935061     2     8     4     6
 -0.0111522009     2     8     4    11
 -0.0124377452     2     8     5     5
 0.0044694481     2     8     5    10
 0.0007709764     2     8     6     1
 -0.0068970096     2     8     6     2
 -0.0159011581     2     8     6     4
 -0.0009496874     2     8     6     6
 -0.0009680382     2     8     6    11
 0.0029099704     2     8     7     3
 0.0000782054     2     8     7     7
 -0.0001346062     2     8     7     9
 -0.0020945493     2     8     8     1
 -0.2738156483     2     8     8     2
 -0.0145059264     2     8     8     4
 0.0065726000     2     8     8     6
 0.0046201708     2     8     8    11
 0.0177355540     2     8     9     3
 0.0012957956     2     8     9     7
 -0.0034143827     2     8     9     9
 0.0049144081     2     8    10     5
 -0.0044056453     2     8    10    10
 0.0030342307     2     8    11     1
 0.0013854122     2     8    11     2
 0.0071640789     2     8    11     4
 -0.0012541657     2     8    11     6
 -0.0044088594     2     8    11    11
 -0.0014202260     2     9     1     3
 -0.0001464009     2     9     1     7
 0.0033474800     2     9     3     1
 0.0063721855     2     9     3     2
 0.0158065667     2     9     3     4
 -0.0001985945     2     9     3     6
 -0.0017574118     2     9     3     8
 0.0012402684     2     9     3    11
 0.0197462492     2     9     4     3
 0.0021792101     2     9     4     7
 0.0000313498     2     9     6     3
 -0.0016994223     2     9     6     7
 0.0010711213     2     9     7     1
 0.0222406758     2     9     7     2
 -0.0078779616     2     9     7     4
 -0.0035998343     2     9     7     6
 0.0001346062     2     9     7     8
 -0.0025948794     2     9     7    11
 0.0154624306     2     9     8     3
 0.0013863800     2     9     8     7
 -0.0008456608     2     9     9     1
 -0.2970026826     2     9     9     2
 -0.0079541176     2     9     9     4
 0.0098873944     2     9     9     6
 0.0034143827     2     9     9     8
 0.0050438454     2     9     9    11
 -0.0175303639     2     9    11     3
 -0.0021177700     2     9    11     7
 -0.0027568898     2    10     1     5
 0.0007164732     2    10     4     5
 0.0125496530     2    10     5     1
 0.0896847038     2    10     5     2
 0.0023992817     2    10     5     4
 -0.0125134090     2    10     5     6
 -0.0044694481     2    10     5     8
 -0.0115641324     2    10     5    11
 -0.0215999954     2    10     6     5
 0.0003754469     2    10     8     5
 -0.0073294615     2    10    10     1
 -0.3240007038     2    10    10     2
 -0.0064246825     2    10    10     4
 0.0111390527     2    10    10     6
 0.0044056453     2    10    10     8
 0.0099495946     2    10    10    11
 0.0045984975     2    10    11     5
 -0.1061099799     2    11     1     1
 -0.0032641305     2    11     1     2
 0.0014068717     2    11     1     4
 0.0004831814     2    11     1     6
 0.0005438229     2    11     1     8
 -0.0601810738     2    11     3     3
 -0.0087339289     2    11     3     7
 -0.0012402684     2    11     3     9
 -0.0116915450     2    11     4     1
 -0.0595333603     2    11     4     2
 -0.0453117689     2    11     4     4
 0.0049691751     2    11     4     6
 0.0111522009     2    11     4     8
 -0.0351656735     2    11     5     5
 0.0115641324     2    11     5    10
 -0.0023290319     2    11     6     1
 -0.0675960580     2    11     6     2
 0.0083650049     2    11     6     4
 0.0033346254     2    11     6     6
 0.0009680382     2    11     6     8
 0.0044751964     2    11     7     3
 0.0007259775     2    11     7     7
 0.0025948794     2    11     7     9
 0.0035404883     2    11     8     1
 0.0013854122     2    11     8     2
 0.0190323581     2    11     8     4
 -0.0002769899     2    11     8     6
 -0.0046201708     2    11     8     8
 -0.0184932701     2    11     9     3
 0.0004429575     2    11     9     7
 -0.0050438454     2    11     9     9
 0.0168257590     2    11    10     5
 -0.0099495946     2    11    10    10
 -0.0062573390     2    11    11     1
 -0.3473561437     2    11    11     2
 0.0060809900     2    11    11     4
 0.0097971210     2    11    11     6
 0.0044088594     2    11    11     8
 -0.8732441819     3     1     1     3
 -0.1118591840     3     1     1     7
 0.0408577992     3     1     1     9
 -0.0310786743     3     1     2     3
 -0.0061292425     3     1     2     7
 0.0033474800     3     1     2     9
 -0.0106209656     3     1     4     3
 -0.0021863110     3     1     4     7
 0.0010646222     3     1     4     9
 0.0036007566     3     1     6     3
 0.0026747021     3     1     6     7
 -0.0008470564     3     1     6     9
 0.0016235101     3     1     7     2
 -0.0006882248     3     1     7     4
 0.0015207792     3     1     7     6
 0.0007684783     3     1     7     8
 0.0010750165     3     1     7    11
 0.0037211091     3     1     8     3
 0.0014465726     3     1     8     7
 0.0010004036     3     1     8     9
 -0.0014202260     3     1     9     2
 0.0028415971     3     1     9     4
 0.0003289095     3     1     9     6
 0.0007700401     3     1     9     8
 -0.0009638430     3     1     9    11
 0.0002588987     3     1    11     3
 0.0016127003     3     1    11     7
 -0.0025482357     3     1    11     9
 -0.0310786743     3     2     1     3
 -0.0083375334     3     2     1     7
 0.0050781293     3     2     1     9
 -0.5291292736     3     2     2     3
 -0.0479657839     3     2     2     7
 0.0063721855     3     2     2     9
 -0.0019580506     3     2     4     3
 0.0007908593     3     2     4     7
 -0.0039380064     3     2     4     9
 0.0478603058     3     2     6     3
 -0.0172675168     3     2     6     7
 -0.0004800104     3     2     6     9
 -0.0016235101     3     2     7     1
 0.0055048295     3     2     7     4
 -0.0246785767     3     2     7     6
 -0.0070233619     3     2     7     8
 -0.0137422743     3     2     7    11
 0.0243382735     3     2     8     3
 -0.0029099704     3     2     8     7
 -0.0177355540     3     2     8     9
 0.0014202260     3     2     9     1
 -0.0197462492     3     2     9     4
 -0.0000313498     3     2     9     6
 -0.0154624306     3     2     9     8
 0.0175303639     3     2     9    11
 0.0601810738     3     2    11     3
 -0.0044751964     3     2    11     7
 0.0184932701     3     2    11     9
 0.8732441819     3     3     1     1
 0.0310786743     3     3     1     2
 0.0106209656     3     3     1     4
 -0.0036007566     3     3     1     6
 -0.0037211091     3     3     1     8
 -0.0002588987     3     3     1    11
 0.0310786743     3     3     2     1
 0.5291292736     3     3     2     2
 0.0019580506     3     3     2     4
 -0.0478603058     3     3     2     6
 -0.0243382735     3     3     2     8
 -0.0601810738     3     3     2    11
 0.0106209656     3     3     4     1
 0.0019580506     3     3     4     2
 0.5617518205     3     3     4     4
 0.0264941178     3     3     4     6
 -0.0521191748     3     3     4     8
 0.0643860339     3     3     4    11
 0.5846603355     3     3     5     5
 -0.0928591054     3     3     5    10
 -0.0036007566     3     3     6     1
 -0.0478603058     3     3     6     2
 0.0264941178     3     3     6     4
 0.2578228144     3     3     6     6
 0.0080861421     3     3     6     8
 0.0711522482     3     3     6    11
 0.2185349605     3     3     7     7
 -0.0180893603     3     3     7     9
 -0.0037211091     3     3     8     1