&FCI NORB= 14,NELEC= 10,MS2=0,
 ORBSYM=1,1,1,1,1,1,1,1,1,1,1,1,1,1
 ISYM=1,
&END
 1.0065967630     1     1     2     2
 -0.0616792066     1     1     2     3
 -0.0424361098     1     1     2     5
 -0.0619575961     1     1     2     6
 0.1056201836     1     1     2     7
 0.0080312492     1     1     2     8
 0.0620153963     1     1     2     9
 0.0420853974     1     1     2    11
 0.0600554172     1     1     2    12
 0.0452059779     1     1     2    14
 -0.0616792066     1     1     3     2
 0.9179988922     1     1     3     3
 0.0598489445     1     1     3     5
 0.0507859772     1     1     3     6
 0.1104812926     1     1     3     7
 0.0007805479     1     1     3     8
 -0.0139458158     1     1     3     9
 0.2414897521     1     1     3    11
 -0.0556076464     1     1     3    12
 0.0159560249     1     1     3    14
 1.0218147186     1     1     4     4
 -0.1786231081     1     1     4    10
 -0.2326589361     1     1     4    13
 -0.0424361098     1     1     5     2
 0.0598489445     1     1     5     3
 0.6973366964     1     1     5     5
 -0.3095948830     1     1     5     6
 -0.0360688252     1     1     5     7
 0.0382198078     1     1     5     8
 -0.0364263252     1     1     5     9
 0.0690726759     1     1     5    11
 0.0785776116     1     1     5    12
 -0.2127900924     1     1     5    14
 -0.0619575961     1     1     6     2
 0.0507859772     1     1     6     3
 -0.3095948830     1     1     6     5
 0.5209166299     1     1     6     6
 0.0195745778     1     1     6     7
 -0.0818649803     1     1     6     8
 0.0113681233     1     1     6     9
 -0.0167219103     1     1     6    11
 -0.1128445346     1     1     6    12
 0.2071061886     1     1     6    14
 0.1056201836     1     1     7     2
 0.1104812926     1     1     7     3
 -0.0360688252     1     1     7     5
 0.0195745778     1     1     7     6
 0.3109219160     1     1     7     7
 -0.0149246391     1     1     7     8
 0.0421996429     1     1     7     9
 0.1130815192     1     1     7    11
 0.0021206496     1     1     7    12
 0.0664210386     1     1     7    14
 0.0080312492     1     1     8     2
 0.0007805479     1     1     8     3
 0.0382198078     1     1     8     5
 -0.0818649803     1     1     8     6
 -0.0149246391     1     1     8     7
 0.2193673441     1     1     8     8
 -0.0073254135     1     1     8     9
 0.0123227045     1     1     8    11
 0.0073268462     1     1     8    12
 -0.0344990267     1     1     8    14
 0.0620153963     1     1     9     2
 -0.0139458158     1     1     9     3
 -0.0364263252     1     1     9     5
 0.0113681233     1     1     9     6
 0.0421996429     1     1     9     7
 -0.0073254135     1     1     9     8
 0.3336575400     1     1     9     9
 0.0287237182     1     1     9    11
 0.0267100590     1     1     9    12
 0.0544126620     1     1     9    14
 -0.1786231081     1     1    10     4
 0.3476213299     1     1    10    10
 0.1195371278     1     1    10    13
 0.0420853974     1     1    11     2
 0.2414897521     1     1    11     3
 0.0690726759     1     1    11     5
 -0.0167219103     1     1    11     6
 0.1130815192     1     1    11     7
 0.0123227045     1     1    11     8
 0.0287237182     1     1    11     9
 0.4974438889     1     1    11    11
 0.0009180036     1     1    11    12
 -0.0253820297     1     1    11    14
 0.0600554172     1     1    12     2
 -0.0556076464     1     1    12     3
 0.0785776116     1     1    12     5
 -0.1128445346     1     1    12     6
 0.0021206496     1     1    12     7
 0.0073268462     1     1    12     8
 0.0267100590     1     1    12     9
 0.0009180036     1     1    12    11
 0.3491660101     1     1    12    12
 -0.0867050486     1     1    12    14
 -0.2326589361     1     1    13     4
 0.1195371278     1     1    13    10
 0.4534592549     1     1    13    13
 0.0452059779     1     1    14     2
 0.0159560249     1     1    14     3
 -0.2127900924     1     1    14     5
 0.2071061886     1     1    14     6
 0.0664210386     1     1    14     7
 -0.0344990267     1     1    14     8
 0.0544126620     1     1    14     9
 -0.0253820297     1     1    14    11
 -0.0867050486     1     1    14    12
 0.5137129102     1     1    14    14
 -1.0065967630     1     2     2     1
 0.0064897250     1     2     2     3
 0.0002229531     1     2     2     5
 0.0007947125     1     2     2     6
 0.0019977794     1     2     2     7
 -0.0000363560     1     2     2     8
 0.0001791011     1     2     2     9
 0.0050051007     1     2     2    11
 -0.0009430578     1     2     2    12
 0.0009172637     1     2     2    14
 0.0616792066     1     2     3     1
 0.0348233227     1     2     3     3
 0.0034591627     1     2     3     5
 0.0022222599     1     2     3     6
 0.0093197239     1     2     3     7
 -0.0000076019     1     2     3     8
 0.0012985493     1     2     3     9
 0.0218337027     1     2     3    11
 -0.0031167193     1     2     3    12
 0.0025753258     1     2     3    14
 0.0440729653     1     2     4     4
 -0.0146324377     1     2     4    10
 -0.0206186885     1     2     4    13
 0.0424361098     1     2     5     1
 0.0029567407     1     2     5     3
 0.0239358353     1     2     5     5
 -0.0179049875     1     2     5     6
 -0.0015797181     1     2     5     7
 0.0034567953     1     2     5     8
 -0.0023765662     1     2     5     9
 0.0052963340     1     2     5    11
 0.0075931718     1     2     5    12
 -0.0181110678     1     2     5    14
 0.0619575961     1     2     6     1
 0.0016069402     1     2     6     3
 -0.0158996788     1     2     6     5
 0.0151367631     1     2     6     6
 0.0024260810     1     2     6     7
 -0.0029292294     1     2     6     8
 0.0019057615     1     2     6     9
 -0.0016282101     1     2     6    11
 -0.0066050144     1     2     6    12
 0.0151347355     1     2     6    14
 -0.1056201836     1     2     7     1
 0.0081230835     1     2     7     3
 -0.0012306224     1     2     7     5
 0.0025076468     1     2     7     6
 0.0026244136     1     2     7     7
 -0.0003920562     1     2     7     8
 0.0006083472     1     2     7     9
 0.0055061768     1     2     7    11
 -0.0015511114     1     2     7    12
 0.0026911569     1     2     7    14
 -0.0080312492     1     2     8     1
 0.0000594346     1     2     8     3
 0.0029022956     1     2     8     5
 -0.0027802218     1     2     8     6
 -0.0003616806     1     2     8     7
 0.0006713869     1     2     8     8
 -0.0004328657     1     2     8     9
 0.0006191980     1     2     8    11
 0.0011821942     1     2     8    12
 -0.0028371044     1     2     8    14
 -0.0620153963     1     2     9     1
 0.0011021413     1     2     9     3
 -0.0018255097     1     2     9     5
 0.0016632463     1     2     9     6
 0.0005784357     1     2     9     7
 -0.0004018493     1     2     9     8
 0.0004485238     1     2     9     9
 -0.0001198017     1     2     9    11
 -0.0006084130     1     2     9    12
 0.0016941933     1     2     9    14
 -0.0112193155     1     2    10     4
 0.0048611381     1     2    10    10
 0.0064356437     1     2    10    13
 -0.0420853974     1     2    11     1
 0.0164280681     1     2    11     3
 0.0042830255     1     2    11     5
 -0.0010864860     1     2    11     6
 0.0045924527     1     2    11     7
 0.0005033483     1     2    11     8
 -0.0002428097     1     2    11     9
 0.0124999082     1     2    11    11
 -0.0011237301     1     2    11    12
 -0.0012115019     1     2    11    14
 -0.0600554172     1     2    12     1
 -0.0020507436     1     2    12     3
 0.0056252660     1     2    12     5
 -0.0056601695     1     2    12     6
 -0.0012117204     1     2    12     7
 0.0010648756     1     2    12     8
 -0.0005666121     1     2    12     9
 -0.0008838265     1     2    12    11
 0.0027165065     1     2    12    12
 -0.0053455839     1     2    12    14
 -0.0151240733     1     2    13     4
 0.0061418824     1     2    13    10
 0.0083752182     1     2    13    13
 -0.0452059779     1     2    14     1
 0.0020724497     1     2    14     3
 -0.0135445390     1     2    14     5
 0.0130725501     1     2    14     6
 0.0024057187     1     2    14     7
 -0.0025688884     1     2    14     8
 0.0016652155     1     2    14     9
 -0.0010271448     1     2    14    11
 -0.0054907286     1     2    14    12
 0.0132966838     1     2    14    14
 0.0616792066     1     3     2     1
 -0.0064897250     1     3     2     2
 0.0005026361     1     3     2     5
 0.0005695794     1     3     2     6
 0.0006270135     1     3     2     7
 -0.0000788457     1     3     2     8
 0.0001257667     1     3     2     9
 0.0042530926     1     3     2    11
 -0.0009047687     1     3     2    12
 0.0003324220     1     3     2    14
 -0.9179988922     1     3     3     1
 -0.0348233227     1     3     3     2
 0.0015529763     1     3     3     5
 0.0031529477     1     3     3     6
 -0.0054182818     1     3     3     7
 -0.0006650836     1     3     3     8
 -0.0005946779     1     3     3     9
 -0.0020381790     1     3     3    11
 -0.0018293131     1     3     3    12
 -0.0019532725     1     3     3    14
 -0.0127718970     1     3     4     4
 0.0045500010     1     3     4    10
 0.0040085698     1     3     4    13
 -0.0598489445     1     3     5     1
 -0.0029567407     1     3     5     2
 -0.0065055285     1     3     5     5
 0.0062669040     1     3     5     6
 0.0002367337     1     3     5     7
 -0.0016802829     1     3     5     8
 -0.0005456858     1     3     5     9
 -0.0011682721     1     3     5    11
 -0.0010033807     1     3     5    12
 0.0051463562     1     3     5    14
 -0.0507859772     1     3     6     1
 -0.0016069402     1     3     6     2
 0.0049429892     1     3     6     5
 -0.0036746682     1     3     6     6
 -0.0004506001     1     3     6     7
 0.0009317940     1     3     6     8
 -0.0004458363     1     3     6     9
 0.0011230484     1     3     6    11
 0.0006597714     1     3     6    12
 -0.0037324788     1     3     6    14
 -0.1104812926     1     3     7     1
 -0.0081230835     1     3     7     2
 0.0010920269     1     3     7     5
 0.0007002127     1     3     7     6
 -0.0041341827     1     3     7     7
 -0.0002169960     1     3     7     8
 -0.0008079389     1     3     7     9
 -0.0030749483     1     3     7    11
 -0.0001102649     1     3     7    12
 -0.0012895626     1     3     7    14
 -0.0007805479     1     3     8     1
 -0.0000594346     1     3     8     2
 -0.0009439192     1     3     8     5
 0.0006103451     1     3     8     6
 -0.0000861187     1     3     8     7
 0.0004143894     1     3     8     8
 -0.0004565290     1     3     8     9
 0.0001107846     1     3     8    11
 -0.0000673616     1     3     8    12
 0.0002114667     1     3     8    14
 0.0139458158     1     3     9     1
 -0.0011021413     1     3     9     2
 0.0002174791     1     3     9     5
 -0.0008395918     1     3     9     6
 -0.0009642916     1     3     9     7
 -0.0003344738     1     3     9     8
 -0.0000809454     1     3     9     9
 -0.0039867446     1     3     9    11
 0.0010056933     1     3     9    12
 -0.0019654060     1     3     9    14
 0.0031868270     1     3    10     4
 -0.0004760901     1     3    10    10
 -0.0017343448     1     3    10    13
 -0.2414897521     1     3    11     1
 -0.0164280681     1     3    11     2
 0.0002200697     1     3    11     5
 0.0032191915     1     3    11     6
 -0.0059862749     1     3    11     7
 -0.0003876794     1     3    11     8
 -0.0043138005     1     3    11     9
 -0.0055356288     1     3    11    11
 -0.0034507197     1     3    11    12
 -0.0017374329     1     3    11    14
 0.0556076464     1     3    12     1
 0.0020507436     1     3    12     2
 -0.0016612373     1     3    12     5
 0.0013944233     1     3    12     6
 0.0009516011     1     3    12     7
 -0.0003361048     1     3    12     8
 0.0010040194     1     3    12     9
 -0.0023462260     1     3    12    11
 -0.0002043622     1     3    12    12
 0.0033162311     1     3    12    14
 0.0046065802     1     3    13     4
 -0.0026221180     1     3    13    10
 -0.0046262597     1     3    13    13
 -0.0159560249     1     3    14     1
 -0.0020724497     1     3    14     2
 0.0042355416     1     3    14     5
 -0.0032641919     1     3    14     6
 -0.0011359399     1     3    14     7
 0.0004989247     1     3    14     8
 -0.0013572730     1     3    14     9
 -0.0006639101     1     3    14    11
 0.0020488031     1     3    14    12
 -0.0040847204     1     3    14    14
 -0.0026158432     1     4     2    10
 -0.0044306141     1     4     2    13
 0.0011924165     1     4     3    10
 -0.0009006813     1     4     3    13
 -1.0218147186     1     4     4     1
 -0.0440729653     1     4     4     2
 0.0127718970     1     4     4     3
 0.0033054926     1     4     4     5
 0.0052905674     1     4     4     6
 -0.0058414526     1     4     4     7
 -0.0010876123     1     4     4     8
 -0.0066139877     1     4     4     9
 -0.0007410241     1     4     4    11
 -0.0069199325     1     4     4    12
 -0.0039274582     1     4     4    14
 -0.0012241321     1     4     5    10
 0.0007834422     1     4     5    13
 -0.0001233614     1     4     6    10
 -0.0005709470     1     4     6    13
 0.0010037092     1     4     7    10
 0.0014861760     1     4     7    13
 -0.0005101703     1     4     8    10
 -0.0002706820     1     4     8    13
 -0.0003111718     1     4     9    10
 -0.0007047621     1     4     9    13
 0.1786231081     1     4    10     1
 0.0112193155     1     4    10     2
 -0.0031868270     1     4    10     3
 -0.0014635241     1     4    10     5
 -0.0025376917     1     4    10     6
 0.0028126655     1     4    10     7
 -0.0000181532     1     4    10     8
 0.0018522349     1     4    10     9
 -0.0004129613     1     4    10    11
 0.0025470083     1     4    10    12
 0.0004270946     1     4    10    14
 -0.0006186678     1     4    11    10
 -0.0008740434     1     4    11    13
 -0.0000854672     1     4    12    10
 -0.0003165799     1     4    12    13
 0.2326589361     1     4    13     1
 0.0151240733     1     4    13     2
 -0.0046065802     1     4    13     3
 -0.0011328576     1     4    13     5
 -0.0024678971     1     4    13     6
 0.0048705821     1     4    13     7
 0.0001585409     1     4    13     8
 0.0025367303     1     4    13     9
 0.0006708505     1     4    13    11
 0.0025678819     1     4    13    12
 0.0024412876     1     4    13    14
 -0.0002609999     1     4    14    10
 -0.0000505673     1     4    14    13
 0.0424361098     1     5     2     1
 -0.0002229531     1     5     2     2
 -0.0005026361     1     5     2     3
 -0.0009722884     1     5     2     6
 -0.0002715909     1     5     2     7
 0.0003360911     1     5     2     8
 -0.0004246643     1     5     2     9
 0.0006931097     1     5     2    11
 0.0015659858     1     5     2    12
 -0.0035908364     1     5     2    14
 -0.0598489445     1     5     3     1
 -0.0034591627     1     5     3     2
 -0.0015529763     1     5     3     3
 0.0010871819     1     5     3     6
 -0.0009254567     1     5     3     7
 -0.0006805996     1     5     3     8
 -0.0006976306     1     5     3     9
 -0.0014529303     1     5     3    11
 0.0007224494     1     5     3    12
 0.0006539702     1     5     3    14
 -0.0033054926     1     5     4     4
 0.0004122900     1     5     4    10
 0.0020167110     1     5     4    13
 -0.6973366964     1     5     5     1
 -0.0239358353     1     5     5     2
 0.0065055285     1     5     5     3
 0.0016835211     1     5     5     6
 -0.0033589209     1     5     5     7
 0.0004883986     1     5     5     8
 -0.0038020869     1     5     5     9
 -0.0011387523     1     5     5    11
 -0.0025839905     1     5     5    12
 -0.0012879243     1     5     5    14
 0.3095948830     1     5     6     1
 0.0158996788     1     5     6     2
 -0.0049429892     1     5     6     3
 -0.0050175465     1     5     6     6
 0.0019755162     1     5     6     7
 0.0007927995     1     5     6     8
 0.0025445162     1     5     6     9
 0.0006280715     1     5     6    11
 0.0034404888     1     5     6    12
 -0.0011368309     1     5     6    14
 0.0360688252     1     5     7     1
 0.0012306224     1     5     7     2
 -0.0010920269     1     5     7     3
 -0.0003618987     1     5     7     6
 -0.0000039975     1     5     7     7
 0.0001657353     1     5     7     8
 0.0003637971     1     5     7     9
 -0.0009013564     1     5     7    11
 0.0000333832     1     5     7    12
 0.0009326341     1     5     7    14
 -0.0382198078     1     5     8     1
 -0.0029022956     1     5     8     2
 0.0009439192     1     5     8     3
 0.0015073573     1     5     8     6
 -0.0000783181     1     5     8     7
 -0.0016342287     1     5     8     8
 -0.0006161387     1     5     8     9
 0.0002507751     1     5     8    11
 -0.0011107377     1     5     8    12
 0.0005824534     1     5     8    14
 0.0364263252     1     5     9     1
 0.0018255097     1     5     9     2
 -0.0002174791     1     5     9     3
 -0.0004083446     1     5     9     6
 0.0006376638     1     5     9     7
 -0.0001165052     1     5     9     8
 -0.0007924087     1     5     9     9
 0.0008029166     1     5     9    11
 0.0015343444     1     5     9    12
 -0.0000983755     1     5     9    14
 0.0014635241     1     5    10     4
 -0.0025083345     1     5    10    10
 -0.0003549752     1     5    10    13
 -0.0690726759     1     5    11     1
 -0.0042830255     1     5    11     2
 -0.0002200697     1     5    11     3
 0.0008032136     1     5    11     6
 -0.0017109685     1     5    11     7
 0.0000511509     1     5    11     8
 -0.0006001523     1     5    11     9
 -0.0009464518     1     5    11    11
 -0.0006435526     1     5    11    12
 -0.0015942638     1     5    11    14
 -0.0785776116     1     5    12     1
 -0.0056252660     1     5    12     2
 0.0016612373     1     5    12     3
 0.0017503096     1     5    12     6
 -0.0016353540     1     5    12     7
 -0.0004709417     1     5    12     8
 0.0001008571     1     5    12     9
 -0.0013268152     1     5    12    11
 -0.0017938997     1     5    12    12
 0.0002604745     1     5    12    14
 0.0011328576     1     5    13     4
 0.0004794858     1     5    13    10
 -0.0007362083     1     5    13    13
 0.2127900924     1     5    14     1
 0.0135445390     1     5    14     2
 -0.0042355416     1     5    14     3
 -0.0033440531     1     5    14     6
 0.0033668484     1     5    14     7
 0.0003103182     1     5    14     8
 0.0026145425     1     5    14     9
 -0.0005805863     1     5    14    11
 0.0029299536     1     5    14    12
 0.0009734159     1     5    14    14
 0.0619575961     1     6     2     1
 -0.0007947125     1     6     2     2
 -0.0005695794     1     6     2     3
 0.0009722884     1     6     2     5
 -0.0001035803     1     6     2     7
 -0.0001265225     1     6     2     8
 0.0002263965     1     6     2     9
 -0.0005545210     1     6     2    11
 -0.0009221653     1     6     2    12
 0.0019738920     1     6     2    14
 -0.0507859772     1     6     3     1
 -0.0022222599     1     6     3     2
 -0.0031529477     1     6     3     3
 -0.0010871819     1     6     3     5
 -0.0011752273     1     6     3     7
 0.0003204027     1     6     3     8
 0.0003970322     1     6     3     9
 -0.0021349500     1     6     3    11
 -0.0007604499     1     6     3    12
 -0.0004523612     1     6     3    14
 -0.0052905674     1     6     4     4
 0.0024401150     1     6     4    10
 0.0018901683     1     6     4    13
 0.3095948830     1     6     5     1
 0.0179049875     1     6     5     2
 -0.0062669040     1     6     5     3
 -0.0016835211     1     6     5     5
 0.0023833840     1     6     5     7
 -0.0007455157     1     6     5     8
 0.0029976734     1     6     5     9
 -0.0001628984     1     6     5    11
 0.0017331123     1     6     5    12
 0.0022372378     1     6     5    14
 -0.5209166299     1     6     6     1
 -0.0151367631     1     6     6     2
 0.0036746682     1     6     6     3
 0.0050175465     1     6     6     5
 -0.0024524140     1     6     6     7
 0.0001583406     1     6     6     8
 -0.0026399788     1     6     6     9
 -0.0002089799     1     6     6    11
 -0.0011782479     1     6     6    12
 -0.0033035405     1     6     6    14
 -0.0195745778     1     6     7     1
 -0.0025076468     1     6     7     2
 -0.0007002127     1     6     7     3
 0.0003618987     1     6     7     5
 -0.0010869023     1     6     7     7
 -0.0001051124     1     6     7     8
 -0.0005083564     1     6     7     9
 -0.0007609253     1     6     7    11
 0.0002031363     1     6     7    12
 -0.0013414865     1     6     7    14
 0.0818649803     1     6     8     1
 0.0027802218     1     6     8     2
 -0.0006103451     1     6     8     3
 -0.0015073573     1     6     8     5
 0.0002951770     1     6     8     7
 0.0011040516     1     6     8     8
 0.0005923682     1     6     8     9
 -0.0002350216     1     6     8    11
 0.0003936074     1     6     8    12
 0.0007242182     1     6     8    14
 -0.0113681233     1     6     9     1
 -0.0016632463     1     6     9     2
 0.0008395918     1     6     9     3
 0.0004083446     1     6     9     5
 -0.0004777154     1     6     9     7
 0.0001031774     1     6     9     8
 0.0005959517     1     6     9     9
 -0.0006521389     1     6     9    11
 -0.0010332214     1     6     9    12
 -0.0003613333     1     6     9    14
 0.0025376917     1     6    10     4
 0.0006956454     1     6    10    10
 -0.0015811573     1     6    10    13
 0.0167219103     1     6    11     1
 0.0010864860     1     6    11     2
 -0.0032191915     1     6    11     3
 -0.0008032136     1     6    11     5
 -0.0003839694     1     6    11     7
 -0.0001773487     1     6    11     8
 -0.0001248135     1     6    11     9
 -0.0023371968     1     6    11    11
 0.0002172185     1     6    11    12
 0.0011755810     1     6    11    14
 0.1128445346     1     6    12     1
 0.0056601695     1     6    12     2
 -0.0013944233     1     6    12     3
 -0.0017503096     1     6    12     5
 0.0016673700     1     6    12     7
 0.0000911976     1     6    12     8
 0.0002619707     1     6    12     9
 0.0006424214     1     6    12    11
 0.0008858943     1     6    12    12
 0.0015029558     1     6    12    14
 0.0024678971     1     6    13     4
 -0.0017268853     1     6    13    10
 -0.0014232147     1     6    13    13
 -0.2071061886     1     6    14     1
 -0.0130725501     1     6    14     2
 0.0032641919     1     6    14     3
 0.0033440531     1     6    14     5
 -0.0034066889     1     6    14     7
 0.0002551491     1     6    14     8
 -0.0026399360     1     6    14     9
 0.0003839348     1     6    14    11
 -0.0011465260     1     6    14    12
 -0.0037262688     1     6    14    14
 -0.1056201836     1     7     2     1
 -0.0019977794     1     7     2     2
 -0.0006270135     1     7     2     3
 0.0002715909     1     7     2     5
 0.0001035803     1     7     2     6
 -0.0000287578     1     7     2     8
 0.0000309195     1     7     2     9
 0.0009127810     1     7     2    11
 -0.0003340926     1     7     2    12
 0.0002806696     1     7     2    14
 -0.1104812926     1     7     3     1
 -0.0093197239     1     7     3     2
 0.0054182818     1     7     3     3
 0.0009254567     1     7     3     5
 0.0011752273     1     7     3     6
 -0.0001355541     1     7     3     8
 0.0001595296     1     7     3     9
 0.0029828763     1     7     3    11
 -0.0010855639     1     7     3    12
 -0.0001455003     1     7     3    14
 0.0058414526     1     7     4     4
 -0.0018115115     1     7     4    10
 -0.0034033437     1     7     4    13
 0.0360688252     1     7     5     1
 0.0015797181     1     7     5     2
 -0.0002367337     1     7     5     3
 0.0033589209     1     7     5     5
 -0.0023833840     1     7     5     6
 0.0002464058     1     7     5     8
 -0.0002828788     1     7     5     9
 0.0008230977     1     7     5    11
 0.0016983107     1     7     5    12
 -0.0024716012     1     7     5    14
 -0.0195745778     1     7     6     1
 -0.0024260810     1     7     6     2
 0.0004506001     1     7     6     3
 -0.0019755162     1     7     6     5
 0.0024524140     1     7     6     6
 -0.0004021951     1     7     6     8
 -0.0000294485     1     7     6     9
 -0.0003750861     1     7     6    11
 -0.0014678416     1     7     6    12
 0.0020705928     1     7     6    14
 -0.3109219160     1     7     7     1
 -0.0026244136     1     7     7     2
 0.0041341827     1     7     7     3
 0.0000039975     1     7     7     5
 0.0010869023     1     7     7     6
 -0.0001905228     1     7     7     8
 -0.0000786659     1     7     7     9
 0.0016624362     1     7     7    11
 -0.0006596512     1     7     7    12
 0.0004512980     1     7     7    14
 0.0149246391     1     7     8     1
 0.0003616806     1     7     8     2
 0.0000861187     1     7     8     3
 0.0000783181     1     7     8     5
 -0.0002951770     1     7     8     6
 0.0003617768     1     7     8     8
 -0.0001127761     1     7     8     9
 0.0002023130     1     7     8    11
 0.0002270625     1     7     8    12
 -0.0003288537     1     7     8    14
 -0.0421996429     1     7     9     1
 -0.0005784357     1     7     9     2
 0.0009642916     1     7     9     3
 -0.0006376638     1     7     9     5
 0.0004777154     1     7     9     6
 -0.0002127087     1     7     9     8
 0.0001701401     1     7     9     9
 -0.0008343126     1     7     9    11
 -0.0002006670     1     7     9    12
 0.0001455563     1     7     9    14
 -0.0028126655     1     7    10     4
 0.0014698578     1     7    10    10
 0.0013817274     1     7    10    13
 -0.1130815192     1     7    11     1
 -0.0045924527     1     7    11     2
 0.0059862749     1     7    11     3
 0.0017109685     1     7    11     5
 0.0003839694     1     7    11     6
 0.0000623641     1     7    11     8
 -0.0011955565     1     7    11     9
 0.0025741432     1     7    11    11
 -0.0012055015     1     7    11    12
 -0.0007732521     1     7    11    14
 -0.0021206496     1     7    12     1
 0.0012117204     1     7    12     2
 -0.0009516011     1     7    12     3
 0.0016353540     1     7    12     5
 -0.0016673700     1     7    12     6
 0.0003094810     1     7    12     8
 0.0000453228     1     7    12     9
 -0.0007447940     1     7    12    11
 0.0009817794     1     7    12    12
 -0.0009434019     1     7    12    14
 -0.0048705821     1     7    13     4
 0.0014115829     1     7    13    10
 0.0017743248     1     7    13    13
 -0.0664210386     1     7    14     1
 -0.0024057187     1     7    14     2
 0.0011359399     1     7    14     3
 -0.0033668484     1     7    14     5
 0.0034066889     1     7    14     6
 -0.0006651456     1     7    14     8
 -0.0001646595     1     7    14     9
 -0.0004891274     1     7    14    11
 -0.0014351346     1     7    14    12
 0.0027563633     1     7    14    14
 -0.0080312492     1     8     2     1
 0.0000363560     1     8     2     2
 0.0000788457     1     8     2     3
 -0.0003360911     1     8     2     5
 0.0001265225     1     8     2     6
 0.0000287578     1     8     2     7
 -0.0000313458     1     8     2     9
 0.0001160627     1     8     2    11
 0.0001174281     1     8     2    12
 -0.0002668351     1     8     2    14
 -0.0007805479     1     8     3     1
 0.0000076019     1     8     3     2
 0.0006650836     1     8     3     3
 0.0006805996     1     8     3     5
 -0.0003204027     1     8     3     6
 0.0001355541     1     8     3     7
 -0.0001205269     1     8     3     9
 0.0005027233     1     8     3    11
 0.0002724687     1     8     3    12
 -0.0002875030     1     8     3    14
 0.0010876123     1     8     4     4
 -0.0004941676     1     8     4    10
 -0.0004311093     1     8     4    13
 -0.0382198078     1     8     5     1
 -0.0034567953     1     8     5     2
 0.0016802829     1     8     5     3
 -0.0004883986     1     8     5     5
 0.0007455157     1     8     5     6
 -0.0002464058     1     8     5     7
 -0.0005063171     1     8     5     9
 0.0001996431     1     8     5    11
 -0.0006593205     1     8     5    12
 0.0002789119     1     8     5    14
 0.0818649803     1     8     6     1
 0.0029292294     1     8     6     2
 -0.0009317940     1     8     6     3
 -0.0007927995     1     8     6     5
 -0.0001583406     1     8     6     6
 0.0004021951     1     8     6     7
 0.0004908046     1     8     6     9
 -0.0000581765     1     8     6    11
 0.0003052616     1     8     6    12
 0.0004669895     1     8     6    14
 0.0149246391     1     8     7     1
 0.0003920562     1     8     7     2
 0.0002169960     1     8     7     3
 -0.0001657353     1     8     7     5
 0.0001051124     1     8     7     6
 0.0001905228     1     8     7     7
 0.0001001178     1     8     7     9
 0.0001408335     1     8     7    11
 -0.0000819655     1     8     7    12
 0.0003348959     1     8     7    14
 -0.2193673441     1     8     8     1
 -0.0006713869     1     8     8     2
 -0.0004143894     1     8     8     3
 0.0016342287     1     8     8     5
 -0.0011040516     1     8     8     6
 -0.0003617768     1     8     8     7
 -0.0002772174     1     8     8     9
 -0.0000939882     1     8     8    11
 0.0004155814     1     8     8    12
 -0.0012646721     1     8     8    14
 0.0073254135     1     8     9     1
 0.0004018493     1     8     9     2
 0.0003344738     1     8     9     3
 0.0001165052     1     8     9     5
 -0.0001031774     1     8     9     6
 0.0002127087     1     8     9     7