&FCI NORB= 12,NELEC= 10,MS2=0,
 ORBSYM=1,1,1,1,1,1,1,1,1,1,1,1
 ISYM=1,
&END
 0.9821104403     1     1     2     2
 0.0725313750     1     1     2     4
 -0.1803546411     1     1     2     6
 0.1462681418     1     1     2     9
 -0.0172128346     1     1     2    10
 0.8554083072     1     1     3     3
 -0.2253026454     1     1     3     7
 0.1505361374     1     1     3     8
 -0.3020517589     1     1     3    12
 0.0725313750     1     1     4     2
 0.9521958178     1     1     4     4
 0.1036104439     1     1     4     6
 -0.1556069313     1     1     4     9
 -0.3573440728     1     1     4    10
 1.0064591730     1     1     5     5
 0.4527212056     1     1     5    11
 -0.1803546411     1     1     6     2
 0.1036104439     1     1     6     4
 0.3992661793     1     1     6     6
 -0.1606642579     1     1     6     9
 -0.0847706874     1     1     6    10
 -0.2253026454     1     1     7     3
 0.3926563014     1     1     7     7
 -0.1545904841     1     1     7     8
 0.2065650308     1     1     7    12
 0.1505361374     1     1     8     3
 -0.1545904841     1     1     8     7
 0.5544521611     1     1     8     8
 -0.1086932250     1     1     8    12
 0.1462681418     1     1     9     2
 -0.1556069313     1     1     9     4
 -0.1606642579     1     1     9     6
 0.5749236909     1     1     9     9
 0.1221785963     1     1     9    10
 -0.0172128346     1     1    10     2
 -0.3573440728     1     1    10     4
 -0.0847706874     1     1    10     6
 0.1221785963     1     1    10     9
 0.7950277769     1     1    10    10
 0.4527212056     1     1    11     5
 0.9488190210     1     1    11    11
 -0.3020517589     1     1    12     3
 0.2065650308     1     1    12     7
 -0.1086932250     1     1    12     8
 0.7472254020     1     1    12    12
 -0.9821104403     1     2     2     1
 -0.0068156984     1     2     2     4
 -0.0025676445     1     2     2     6
 0.0044684244     1     2     2     9
 0.0089564694     1     2     2    10
 0.0295959168     1     2     3     3
 -0.0164745384     1     2     3     7
 0.0164608604     1     2     3     8
 -0.0331775955     1     2     3    12
 -0.0725313750     1     2     4     1
 0.0353039178     1     2     4     4
 0.0095700295     1     2     4     6
 -0.0168510288     1     2     4     9
 -0.0357364660     1     2     4    10
 0.0409015236     1     2     5     5
 0.0476949339     1     2     5    11
 0.1803546411     1     2     6     1
 0.0095596176     1     2     6     4
 0.0025996768     1     2     6     6
 -0.0049080547     1     2     6     9
 -0.0101515285     1     2     6    10
 -0.0130057769     1     2     7     3
 0.0073443013     1     2     7     7
 -0.0074178103     1     2     7     8
 0.0152540480     1     2     7    12
 0.0115537211     1     2     8     3
 -0.0064669059     1     2     8     7
 0.0061876045     1     2     8     8
 -0.0126544947     1     2     8    12
 -0.1462681418     1     2     9     1
 -0.0141839435     1     2     9     4
 -0.0039631003     1     2     9     6
 0.0067898635     1     2     9     9
 0.0157438175     1     2     9    10
 0.0172128346     1     2    10     1
 -0.0237293663     1     2    10     4
 -0.0061412317     1     2    10     6
 0.0119246767     1     2    10     9
 0.0265986293     1     2    10    10
 0.0314709309     1     2    11     5
 0.0403925158     1     2    11    11
 -0.0203184924     1     2    12     3
 0.0118635917     1     2    12     7
 -0.0112671811     1     2    12     8
 0.0252962704     1     2    12    12
 -0.0031997161     1     3     2     7
 0.0046991965     1     3     2     8
 -0.0123652362     1     3     2    12
 -0.8554083072     1     3     3     1
 -0.0295959168     1     3     3     2
 -0.0102797936     1     3     3     4
 0.0047809535     1     3     3     6
 0.0006989288     1     3     3     9
 0.0050745531     1     3     3    10
 0.0017494971     1     3     4     7
 -0.0059360216     1     3     4     8
 -0.0022089327     1     3     4    12
 -0.0024947602     1     3     6     7
 -0.0003563455     1     3     6     8
 -0.0017612370     1     3     6    12
 0.2253026454     1     3     7     1
 0.0130057769     1     3     7     2
 0.0044617395     1     3     7     4
 -0.0061183221     1     3     7     6
 0.0033671462     1     3     7     9
 -0.0010163713     1     3     7    10
 -0.1505361374     1     3     8     1
 -0.0115537211     1     3     8     2
 -0.0035325250     1     3     8     4
 0.0047972853     1     3     8     6
 -0.0088133474     1     3     8     9
 -0.0032355551     1     3     8    10
 0.0022003704     1     3     9     7
 -0.0048467478     1     3     9     8
 0.0053270337     1     3     9    12
 -0.0011236898     1     3    10     7
 0.0021411156     1     3    10     8
 -0.0041165659     1     3    10    12
 0.3020517589     1     3    12     1
 0.0203184924     1     3    12     2
 0.0072130990     1     3    12     4
 -0.0081831876     1     3    12     6
 0.0059089056     1     3    12     9
 -0.0078229144     1     3    12    10
 -0.0725313750     1     4     2     1
 0.0068156984     1     4     2     2
 -0.0001482035     1     4     2     6
 -0.0024569493     1     4     2     9
 -0.0114339255     1     4     2    10
 0.0102797936     1     4     3     3
 -0.0027555340     1     4     3     7
 -0.0023248030     1     4     3     8
 -0.0095068777     1     4     3    12
 -0.9521958178     1     4     4     1
 -0.0353039178     1     4     4     2
 0.0109260155     1     4     4     6
 -0.0128795708     1     4     4     9
 -0.0061054898     1     4     4    10
 0.0138190716     1     4     5     5
 0.0152283811     1     4     5    11
 -0.1036104439     1     4     6     1
 -0.0095596176     1     4     6     2
 0.0056290113     1     4     6     6
 -0.0052048905     1     4     6     9
 -0.0023187358     1     4     6    10
 -0.0044617395     1     4     7     3
 0.0038615579     1     4     7     7
 -0.0016817224     1     4     7     8
 0.0067161298     1     4     7    12
 0.0035325250     1     4     8     3
 -0.0040364466     1     4     8     7
 0.0061569267     1     4     8     8
 -0.0106879929     1     4     8    12
 0.1556069313     1     4     9     1
 0.0141839435     1     4     9     2
 -0.0070298646     1     4     9     6
 0.0110945387     1     4     9     9
 -0.0002087561     1     4     9    10
 0.3573440728     1     4    10     1
 0.0237293663     1     4    10     2
 -0.0122000172     1     4    10     6
 0.0103849387     1     4    10     9
 0.0045997035     1     4    10    10
 0.0108215190     1     4    11     5
 0.0135592589     1     4    11    11
 -0.0072130990     1     4    12     3
 0.0035679226     1     4    12     7
 -0.0028332346     1     4    12     8
 0.0056594889     1     4    12    12
 0.0155889813     1     5     2    11
 0.0042621338     1     5     4    11
 -1.0064591730     1     5     5     1
 -0.0409015236     1     5     5     2
 -0.0138190716     1     5     5     4
 0.0101949540     1     5     5     6
 -0.0123133790     1     5     5     9
 0.0092503401     1     5     5    10
 0.0002978443     1     5     6    11
 0.0046851286     1     5     9    11
 -0.0024671244     1     5    10    11
 -0.4527212056     1     5    11     1
 -0.0314709309     1     5    11     2
 -0.0108215190     1     5    11     4
 0.0130952360     1     5    11     6
 -0.0108069273     1     5    11     9
 0.0077858100     1     5    11    10
 0.1803546411     1     6     2     1
 0.0025676445     1     6     2     2
 0.0001482035     1     6     2     4
 -0.0009435332     1     6     2     9
 -0.0038526494     1     6     2    10
 -0.0047809535     1     6     3     3
 0.0036362025     1     6     3     7
 -0.0051789908     1     6     3     8
 0.0065118642     1     6     3    12
 -0.1036104439     1     6     4     1
 -0.0095700295     1     6     4     2
 -0.0109260155     1     6     4     4
 0.0018867942     1     6     4     9
 0.0099507422     1     6     4    10
 -0.0101949540     1     6     5     5
 -0.0126256753     1     6     5    11
 -0.3992661793     1     6     6     1
 -0.0025996768     1     6     6     2
 -0.0056290113     1     6     6     4
 0.0013480602     1     6     6     9
 0.0051282252     1     6     6    10
 0.0061183221     1     6     7     3
 -0.0029127028     1     6     7     7
 0.0034363681     1     6     7     8
 -0.0063766076     1     6     7    12
 -0.0047972853     1     6     8     3
 0.0020217075     1     6     8     7
 -0.0012282969     1     6     8     8
 0.0034018237     1     6     8    12
 0.1606642579     1     6     9     1
 0.0039631003     1     6     9     2
 0.0070298646     1     6     9     4
 -0.0002626194     1     6     9     9
 -0.0075509594     1     6     9    10
 0.0847706874     1     6    10     1
 0.0061412317     1     6    10     2
 0.0122000172     1     6    10     4
 -0.0032868073     1     6    10     9
 -0.0116724902     1     6    10    10
 -0.0130952360     1     6    11     5
 -0.0158455383     1     6    11    11
 0.0081831876     1     6    12     3
 -0.0047071570     1     6    12     7
 0.0047028262     1     6    12     8
 -0.0103518397     1     6    12    12
 0.0031997161     1     7     2     3
 -0.0009335410     1     7     2     8
 0.0032014321     1     7     2    12
 0.2253026454     1     7     3     1
 0.0164745384     1     7     3     2
 0.0027555340     1     7     3     4
 -0.0036362025     1     7     3     6
 0.0011669793     1     7     3     9
 0.0000802134     1     7     3    10
 -0.0017494971     1     7     4     3
 0.0023516695     1     7     4     8
 0.0030680095     1     7     4    12
 0.0024947602     1     7     6     3
 0.0014148427     1     7     6     8
 -0.0016553360     1     7     6    12
 -0.3926563014     1     7     7     1
 -0.0073443013     1     7     7     2
 -0.0038615579     1     7     7     4
 0.0029127028     1     7     7     6
 -0.0012268665     1     7     7     9
 0.0018552270     1     7     7    10
 0.1545904841     1     7     8     1
 0.0064669059     1     7     8     2
 0.0040364466     1     7     8     4
 -0.0020217075     1     7     8     6
 0.0036962439     1     7     8     9
 -0.0002890596     1     7     8    10
 -0.0022003704     1     7     9     3
 0.0014520843     1     7     9     8
 -0.0004986713     1     7     9    12
 0.0011236898     1     7    10     3
 -0.0005857279     1     7    10     8
 0.0009868769     1     7    10    12
 -0.2065650308     1     7    12     1
 -0.0118635917     1     7    12     2
 -0.0035679226     1     7    12     4
 0.0047071570     1     7    12     6
 -0.0035744348     1     7    12     9
 0.0037390746     1     7    12    10
 -0.0046991965     1     8     2     3
 0.0009335410     1     8     2     7
 -0.0012731147     1     8     2    12
 -0.1505361374     1     8     3     1
 -0.0164608604     1     8     3     2
 0.0023248030     1     8     3     4
 0.0051789908     1     8     3     6
 -0.0039370351     1     8     3     9
 -0.0050876707     1     8     3    10
 0.0059360216     1     8     4     3
 -0.0023516695     1     8     4     7
 -0.0077147996     1     8     4    12
 0.0003563455     1     8     6     3
 -0.0014148427     1     8     6     7
 -0.0013199160     1     8     6    12
 0.1545904841     1     8     7     1
 0.0074178103     1     8     7     2
 0.0016817224     1     8     7     4
 -0.0034363681     1     8     7     6
 0.0022444335     1     8     7     9
 0.0003149016     1     8     7    10
 -0.5544521611     1     8     8     1
 -0.0061876045     1     8     8     2
 -0.0061569267     1     8     8     4
 0.0012282969     1     8     8     6
 -0.0023851633     1     8     8     9
 0.0024198898     1     8     8    10
 0.0048467478     1     8     9     3
 -0.0014520843     1     8     9     7
 -0.0023690229     1     8     9    12
 -0.0021411156     1     8    10     3
 0.0005857279     1     8    10     7
 0.0003174123     1     8    10    12
 0.1086932250     1     8    12     1
 0.0112671811     1     8    12     2
 0.0028332346     1     8    12     4
 -0.0047028262     1     8    12     6
 0.0037138019     1     8    12     9
 -0.0029146480     1     8    12    10
 -0.1462681418     1     9     2     1
 -0.0044684244     1     9     2     2
 0.0024569493     1     9     2     4
 0.0009435332     1     9     2     6
 0.0037249640     1     9     2    10
 -0.0006989288     1     9     3     3
 -0.0011669793     1     9     3     7
 0.0039370351     1     9     3     8
 -0.0007313850     1     9     3    12
 0.1556069313     1     9     4     1
 0.0168510288     1     9     4     2
 0.0128795708     1     9     4     4
 -0.0018867942     1     9     4     6
 -0.0106288395     1     9     4    10
 0.0123133790     1     9     5     5
 0.0151273299     1     9     5    11
 0.1606642579     1     9     6     1
 0.0049080547     1     9     6     2
 0.0052048905     1     9     6     4
 -0.0013480602     1     9     6     6
 -0.0042636936     1     9     6    10
 -0.0033671462     1     9     7     3
 0.0012268665     1     9     7     7
 -0.0022444335     1     9     7     8
 0.0030700650     1     9     7    12
 0.0088133474     1     9     8     3
 -0.0036962439     1     9     8     7
 0.0023851633     1     9     8     8
 -0.0060904664     1     9     8    12
 -0.5749236909     1     9     9     1
 -0.0067898635     1     9     9     2
 -0.0110945387     1     9     9     4
 0.0002626194     1     9     9     6
 0.0116264930     1     9     9    10
 -0.1221785963     1     9    10     1
 -0.0119246767     1     9    10     2
 -0.0103849387     1     9    10     4
 0.0032868073     1     9    10     6
 0.0090796539     1     9    10    10
 0.0108069273     1     9    11     5
 0.0134142865     1     9    11    11
 -0.0059089056     1     9    12     3
 0.0035744348     1     9    12     7
 -0.0037138019     1     9    12     8
 0.0084951915     1     9    12    12
 0.0172128346     1    10     2     1
 -0.0089564694     1    10     2     2
 0.0114339255     1    10     2     4
 0.0038526494     1    10     2     6
 -0.0037249640     1    10     2     9
 -0.0050745531     1    10     3     3
 -0.0000802134     1    10     3     7
 0.0050876707     1    10     3     8
 0.0037035709     1    10     3    12
 0.3573440728     1    10     4     1
 0.0357364660     1    10     4     2
 0.0061054898     1    10     4     4
 -0.0099507422     1    10     4     6
 0.0106288395     1    10     4     9
 -0.0092503401     1    10     5     5
 -0.0099213893     1    10     5    11
 0.0847706874     1    10     6     1
 0.0101515285     1    10     6     2
 0.0023187358     1    10     6     4
 -0.0051282252     1    10     6     6
 0.0042636936     1    10     6     9
 0.0010163713     1    10     7     3
 -0.0018552270     1    10     7     7
 -0.0003149016     1    10     7     8
 -0.0027515443     1    10     7    12
 0.0032355551     1    10     8     3
 0.0002890596     1    10     8     7
 -0.0024198898     1    10     8     8
 0.0032344275     1    10     8    12
 -0.1221785963     1    10     9     1
 -0.0157438175     1    10     9     2
 0.0002087561     1    10     9     4
 0.0075509594     1    10     9     6
 -0.0116264930     1    10     9     9
 -0.7950277769     1    10    10     1
 -0.0265986293     1    10    10     2
 -0.0045997035     1    10    10     4
 0.0116724902     1    10    10     6
 -0.0090796539     1    10    10     9
 -0.0077858100     1    10    11     5
 -0.0094068600     1    10    11    11
 0.0078229144     1    10    12     3
 -0.0037390746     1    10    12     7
 0.0029146480     1    10    12     8
 -0.0058488506     1    10    12    12
 -0.0155889813     1    11     2     5
 -0.0042621338     1    11     4     5
 -0.4527212056     1    11     5     1
 -0.0476949339     1    11     5     2
 -0.0152283811     1    11     5     4
 0.0126256753     1    11     5     6
 -0.0151273299     1    11     5     9
 0.0099213893     1    11     5    10
 -0.0002978443     1    11     6     5
 -0.0046851286     1    11     9     5
 0.0024671244     1    11    10     5
 -0.9488190210     1    11    11     1
 -0.0403925158     1    11    11     2
 -0.0135592589     1    11    11     4
 0.0158455383     1    11    11     6
 -0.0134142865     1    11    11     9
 0.0094068600     1    11    11    10
 0.0123652362     1    12     2     3
 -0.0032014321     1    12     2     7
 0.0012731147     1    12     2     8
 0.3020517589     1    12     3     1
 0.0331775955     1    12     3     2
 0.0095068777     1    12     3     4
 -0.0065118642     1    12     3     6
 0.0007313850     1    12     3     9
 -0.0037035709     1    12     3    10
 0.0022089327     1    12     4     3
 -0.0030680095     1    12     4     7
 0.0077147996     1    12     4     8
 0.0017612370     1    12     6     3
 0.0016553360     1    12     6     7
 0.0013199160     1    12     6     8
 -0.2065650308     1    12     7     1
 -0.0152540480     1    12     7     2
 -0.0067161298     1    12     7     4
 0.0063766076     1    12     7     6
 -0.0030700650     1    12     7     9
 0.0027515443     1    12     7    10
 0.1086932250     1    12     8     1
 0.0126544947     1    12     8     2
 0.0106879929     1    12     8     4
 -0.0034018237     1    12     8     6
 0.0060904664     1    12     8     9
 -0.0032344275     1    12     8    10
 -0.0053270337     1    12     9     3
 0.0004986713     1    12     9     7
 0.0023690229     1    12     9     8
 0.0041165659     1    12    10     3
 -0.0009868769     1    12    10     7
 -0.0003174123     1    12    10     8
 -0.7472254020     1    12    12     1
 -0.0252962704     1    12    12     2
 -0.0056594889     1    12    12     4
 0.0103518397     1    12    12     6
 -0.0084951915     1    12    12     9
 0.0058488506     1    12    12    10
 -0.9821104403     2     1     1     2
 -0.0725313750     2     1     1     4
 0.1803546411     2     1     1     6
 -0.1462681418     2     1     1     9
 0.0172128346     2     1     1    10
 0.0295959168     2     1     3     3
 -0.0130057769     2     1     3     7
 0.0115537211     2     1     3     8
 -0.0203184924     2     1     3    12
 -0.0068156984     2     1     4     2
 0.0353039178     2     1     4     4
 0.0095596176     2     1     4     6
 -0.0141839435     2     1     4     9
 -0.0237293663     2     1     4    10
 0.0409015236     2     1     5     5
 0.0314709309     2     1     5    11
 -0.0025676445     2     1     6     2
 0.0095700295     2     1     6     4
 0.0025996768     2     1     6     6
 -0.0039631003     2     1     6     9
 -0.0061412317     2     1     6    10
 -0.0164745384     2     1     7     3
 0.0073443013     2     1     7     7
 -0.0064669059     2     1     7     8
 0.0118635917     2     1     7    12
 0.0164608604     2     1     8     3
 -0.0074178103     2     1     8     7
 0.0061876045     2     1     8     8
 -0.0112671811     2     1     8    12
 0.0044684244     2     1     9     2
 -0.0168510288     2     1     9     4
 -0.0049080547     2     1     9     6
 0.0067898635     2     1     9     9
 0.0119246767     2     1     9    10
 0.0089564694     2     1    10     2
 -0.0357364660     2     1    10     4
 -0.0101515285     2     1    10     6
 0.0157438175     2     1    10     9
 0.0265986293     2     1    10    10
 0.0476949339     2     1    11     5
 0.0403925158     2     1    11    11
 -0.0331775955     2     1    12     3
 0.0152540480     2     1    12     7
 -0.0126544947     2     1    12     8
 0.0252962704     2     1    12    12
 0.9821104403     2     2     1     1
 0.0068156984     2     2     1     4
 0.0025676445     2     2     1     6
 -0.0044684244     2     2     1     9
 -0.0089564694     2     2     1    10
 0.5246360731     2     2     3     3
 -0.0861739916     2     2     3     7
 0.0321151779     2     2     3     8
 -0.0999906182     2     2     3    12
 0.0068156984     2     2     4     1
 0.5529152392     2     2     4     4
 0.0433815216     2     2     4     6
 -0.0513010666     2     2     4     9
 -0.1155772384     2     2     4    10
 0.5842634222     2     2     5     5
 0.1468497672     2     2     5    11
 0.0025676445     2     2     6     1
 0.0433815216     2     2     6     4
 0.3314993371     2     2     6     6
 -0.0788141195     2     2     6     9
 -0.0405172807     2     2     6    10
 -0.0861739916     2     2     7     3
 0.3277619764     2     2     7     7
 -0.0855732090     2     2     7     8
 0.0935396385     2     2     7    12
 0.0321151779     2     2     8     3
 -0.0855732090     2     2     8     7
 0.4729798664     2     2     8     8
 -0.0224117992     2     2     8    12
 -0.0044684244     2     2     9     1
 -0.0513010666     2     2     9     4
 -0.0788141195     2     2     9     6
 0.4705183773     2     2     9     9
 0.0243419438     2     2     9    10
 -0.0089564694     2     2    10     1
 -0.1155772384     2     2    10     4
 -0.0405172807     2     2    10     6
 0.0243419438     2     2    10     9
 0.5368457310     2     2    10    10
 0.1468497672     2     2    11     5
 0.5811573980     2     2    11    11
 -0.0999906182     2     2    12     3
 0.0935396385     2     2    12     7
 -0.0224117992     2     2    12     8
 0.5088997452     2     2    12    12
 0.0031997161     2     3     1     7
 -0.0046991965     2     3     1     8
 0.0123652362     2     3     1    12
 -0.0295959168     2     3     3     1
 -0.5246360731     2     3     3     2
 -0.0029342237     2     3     3     4
 0.0772658786     2     3     3     6
 -0.0794517039     2     3     3     9
 0.0200597949     2     3     3    10
 -0.0150164639     2     3     4     7
 0.0390608956     2     3     4     8
 0.0081147577     2     3     4    12
 0.0401423850     2     3     6     7
 0.0000447840     2     3     6     8
 0.0255466601     2     3     6    12
 0.0164745384     2     3     7     1
 0.0861739916     2     3     7     2
 -0.0005353823     2     3     7     4
 0.0186556627     2     3     7     6
 0.0078267269     2     3     7     9
 -0.0035508846     2     3     7    10
 -0.0164608604     2     3     8     1
 -0.0321151779     2     3     8     2
 0.0051883002     2     3     8     4
 0.0058526101     2     3     8     6
 0.0508202680     2     3     8     9
 0.0066379372     2     3     8    10
 -0.0147129585     2     3     9     7
 0.0537266093     2     3     9     8
 -0.0330219111     2     3     9    12
 0.0003042101     2     3    10     7
 0.0051431774     2     3    10     8
 0.0216559242     2     3    10    12
 0.0331775955     2     3    12     1
 0.0999906182     2     3    12     2
 0.0073369618     2     3    12     4
 -0.0010437437     2     3    12     6
 -0.0045322366     2     3    12     9
 0.0184153319     2     3    12    10
 0.0725313750     2     4     1     1
 -0.0068156984     2     4     1     2
 0.0001482035     2     4     1     6
 0.0024569493     2     4     1     9
 0.0114339255     2     4     1    10
 0.0029342237     2     4     3     3
 -0.0144902585     2     4     3     7
 0.0345274458     2     4     3     8
 0.0009637675     2     4     3    12
 -0.0353039178     2     4     4     1
 -0.5529152392     2     4     4     2
 0.0788032007     2     4     4     6
 -0.0529728235     2     4     4     9
 -0.0152427428     2     4     4    10
 0.0065531479     2     4     5     5
 0.0117441811     2     4     5    11
 -0.0095700295     2     4     6     1
 -0.0433815216     2     4     6     2
 -0.0097622820     2     4     6     6
 -0.0005265251     2     4     6     9
 0.0203093779     2     4     6    10
 0.0005353823     2     4     7     3
 -0.0141078398     2     4     7     7
 -0.0041287661     2     4     7     8
 0.0017862152     2     4     7    12
 -0.0051883002     2     4     8     3
 0.0045981530     2     4     8     7
 -0.0188827117     2     4     8     8
 0.0146680469     2     4     8    12
 0.0168510288     2     4     9     1
 0.0513010666     2     4     9     2
 -0.0055340271     2     4     9     6
 -0.0267249907     2     4     9     9
 0.0097013400     2     4     9    10
 0.0357364660     2     4    10     1
 0.1155772384     2     4    10     2
 -0.0076478871     2     4    10     6
 0.0349095359     2     4    10     9
 0.0176970691     2     4    10    10
 0.0095349893     2     4    11     5
 0.0243374228     2     4    11    11
 -0.0073369618     2     4    12     3
 0.0037576565     2     4    12     7
 0.0091284752     2     4    12     8
 0.0245259162     2     4    12    12
 -0.0155889813     2     5     1    11
 0.0024318323     2     5     4    11
 -0.0409015236     2     5     5     1
 -0.5842634222     2     5     5     2
 -0.0065531479     2     5     5     4
 0.0754308042     2     5     5     6
 -0.0346668742     2     5     5     9
 -0.0079315344     2     5     5    10
 -0.0238603685     2     5     6    11
 0.0017161640     2     5     9    11
 -0.0016544054     2     5    10    11
 -0.0476949339     2     5    11     1
 -0.1468497672     2     5    11     2
 -0.0095349893     2     5    11     4
 0.0128741159     2     5    11     6
 -0.0278100249     2     5    11     9
 -0.0017260671     2     5    11    10
 -0.1803546411     2     6     1     1
 -0.0025676445     2     6     1     2
 -0.0001482035     2     6     1     4
 0.0009435332     2     6     1     9
 0.0038526494     2     6     1    10
 -0.0772658786     2     6     3     3
 0.0214968709     2     6     3     7
 -0.0059592269     2     6     3     8
 0.0265308869     2     6     3    12
 -0.0095596176     2     6     4     1
 -0.0433815216     2     6     4     2
 -0.0788032007     2     6     4     4
 0.0053213157     2     6     4     9
 0.0285036554     2     6     4    10
 -0.0754308042     2     6     5     5
 -0.0372295841     2     6     5    11
 -0.0025996768     2     6     6     1
 -0.3314993371     2     6     6     2
 0.0097622820     2     6     6     4
 0.0125437785     2     6     6     9
 0.0133558781     2     6     6    10
 -0.0186556627     2     6     7     3
 -0.0149823231     2     6     7     7
 0.0238786090     2     6     7     8
 -0.0241084140     2     6     7    12
 -0.0058526101     2     6     8     3
 0.0140426911     2     6     8     7
 -0.0401598681     2     6     8     8
 0.0041752646     2     6     8    12
 0.0049080547     2     6     9     1
 0.0788141195     2     6     9     2
 0.0055340271     2     6     9     4
 -0.0301993883     2     6     9     9
 -0.0059134404     2     6     9    10
 0.0101515285     2     6    10     1
 0.0405172807     2     6    10     2
 0.0076478871     2     6    10     4
 -0.0013748751     2     6    10     9
 -0.0578057830     2     6    10    10
 -0.0128741159     2     6    11     5
 -0.0697882694     2     6    11    11
 0.0010437437     2     6    12     3
 -0.0134063396     2     6    12     7
 0.0064870997     2     6    12     8
 -0.0475779004     2     6    12    12
 -0.0031997161     2     7     1     3
 0.0009335410     2     7     1     8
 -0.0032014321     2     7     1    12
 0.0130057769     2     7     3     1
 0.0861739916     2     7     3     2
 0.0144902585     2     7     3     4
 -0.0214968709     2     7     3     6
 0.0220770358     2     7     3     9
 -0.0036020493     2     7     3    10
 0.0150164639     2     7     4     3
 -0.0081833315     2     7     4     8
 -0.0015175425     2     7     4    12
 -0.0401423850     2     7     6     3
 0.0098365308     2     7     6     8
 -0.0106858261     2     7     6    12
 -0.0073443013     2     7     7     1
 -0.3277619764     2     7     7     2
 0.0141078398     2     7     7     4
 0.0149823231     2     7     7     6
 0.0003359966     2     7     7     9
 0.0022333598     2     7     7    10
 0.0074178103     2     7     8     1
 0.0855732090     2     7     8     2
 -0.0045981530     2     7     8     4
 -0.0140426911     2     7     8     6
 0.0050047460     2     7     8     9
 -0.0008175054     2     7     8    10
 0.0147129585     2     7     9     3
 -0.0069502104     2     7     9     8
 0.0005344636     2     7     9    12
 -0.0003042101     2     7    10     3
 -0.0020897583     2     7    10     8
 -0.0062109581     2     7    10    12
 -0.0152540480     2     7    12     1
 -0.0935396385     2     7    12     2
 -0.0037576565     2     7    12     4
 0.0134063396     2     7    12     6
 -0.0104595020     2     7    12     9
 -0.0062714754     2     7    12    10
 0.0046991965     2     8     1     3
 -0.0009335410     2     8     1     7
 0.0012731147     2     8     1    12
 -0.0115537211     2     8     3     1
 -0.0321151779     2     8     3     2
 -0.0345274458     2     8     3     4
 0.0059592269     2     8     3     6
 -0.0029714897     2     8     3     9
 0.0010349549     2     8     3    10
 -0.0390608956     2     8     4     3
 0.0081833315     2     8     4     7
 0.0048960767     2     8     4    12
 -0.0000447840     2     8     6     3
 -0.0098365308     2     8     6     7
 -0.0024191159     2     8     6    12
 0.0064669059     2     8     7     1
 0.0855732090     2     8     7     2
 0.0041287661     2     8     7     4
 -0.0238786090     2     8     7     6
 0.0119245691     2     8     7     9
 0.0014176232     2     8     7    10
 -0.0061876045     2     8     8     1
 -0.4729798664     2     8     8     2
 0.0188827117     2     8     8     4
 0.0401598681     2     8     8     6
 -0.0246234219     2     8     8     9
 -0.0017754554     2     8     8    10
 -0.0537266093     2     8     9     3
 0.0069502104     2     8     9     7
 0.0078673667     2     8     9    12
 -0.0051431774     2     8    10     3
 0.0020897583     2     8    10     7
 0.0040637057     2     8    10    12
 0.0126544947     2     8    12     1
 0.0224117992     2     8    12     2
 -0.0091284752     2     8    12     4
 -0.0064870997     2     8    12     6
 0.0123694129     2     8    12     9
 0.0042942290     2     8    12    10
 0.1462681418     2     9     1     1
 0.0044684244     2     9     1     2
 -0.0024569493     2     9     1     4