&FCI NORB=  6,NELEC= 10,MS2=0,
 ORBSYM=1,1,1,1,1,1
 ISYM=1,
&END
 0.9843730138     1     1     2     2
 0.0663096430     1     1     2     4
 0.1111229637     1     1     2     6
 0.8705512740     1     1     3     3
 0.0663096430     1     1     4     2
 0.9479556339     1     1     4     4
 -0.0537720300     1     1     4     6
 0.9922837623     1     1     5     5
 0.1111229637     1     1     6     2
 -0.0537720300     1     1     6     4
 0.3159319706     1     1     6     6
 -0.9843730138     1     2     2     1
 -0.0070948118     1     2     2     4
 0.0009481299     1     2     2     6
 0.0312139516     1     2     3     3
 -0.0663096430     1     2     4     1
 0.0359232342     1     2     4     4
 -0.0058747939     1     2     4     6
 0.0405954796     1     2     5     5
 -0.1111229637     1     2     6     1
 -0.0054115198     1     2     6     4
 0.0014141325     1     2     6     6
 -0.8705512740     1     3     3     1
 -0.0312139516     1     3     3     2
 -0.0105894196     1     3     3     4
 -0.0041198459     1     3     3     6
 -0.0663096430     1     4     2     1
 0.0070948118     1     4     2     2
 0.0001487215     1     4     2     6
 0.0105894196     1     4     3     3
 -0.9479556339     1     4     4     1
 -0.0359232342     1     4     4     2
 -0.0079509179     1     4     4     6
 0.0135706387     1     4     5     5
 0.0537720300     1     4     6     1
 0.0054115198     1     4     6     2
 0.0031926946     1     4     6     6
 -0.9922837623     1     5     5     1
 -0.0405954796     1     5     5     2
 -0.0135706387     1     5     5     4
 -0.0076031960     1     5     5     6
 -0.1111229637     1     6     2     1
 -0.0009481299     1     6     2     2
 -0.0001487215     1     6     2     4
 0.0041198459     1     6     3     3
 0.0537720300     1     6     4     1
 0.0058747939     1     6     4     2
 0.0079509179     1     6     4     4
 0.0076031960     1     6     5     5
 -0.3159319706     1     6     6     1
 -0.0014141325     1     6     6     2
 -0.0031926946     1     6     6     4
 -0.9843730138     2     1     1     2
 -0.0663096430     2     1     1     4
 -0.1111229637     2     1     1     6
 0.0312139516     2     1     3     3
 -0.0070948118     2     1     4     2
 0.0359232342     2     1     4     4
 -0.0054115198     2     1     4     6
 0.0405954796     2     1     5     5
 0.0009481299     2     1     6     2
 -0.0058747939     2     1     6     4
 0.0014141325     2     1     6     6
 0.9843730138     2     2     1     1
 0.0070948118     2     2     1     4
 -0.0009481299     2     2     1     6
 0.5283833156     2     2     3     3
 0.0070948118     2     2     4     1
 0.5500169246     2     2     4     4
 -0.0221936650     2     2     4     6
 0.5761970429     2     2     5     5
 -0.0009481299     2     2     6     1
 -0.0221936650     2     2     6     4
 0.2814452931     2     2     6     6
 -0.0312139516     2     3     3     1
 -0.5283833156     2     3     3     2
 -0.0014553151     2     3     3     4
 -0.0519458438     2     3     3     6
 0.0663096430     2     4     1     1
 -0.0070948118     2     4     1     2
 -0.0001487215     2     4     1     6
 0.0014553151     2     4     3     3
 -0.0359232342     2     4     4     1
 -0.5500169246     2     4     4     2
 -0.0509745849     2     4     4     6
 0.0037242303     2     4     5     5
 0.0058747939     2     4     6     1
 0.0221936650     2     4     6     2
 -0.0104078718     2     4     6     6
 -0.0405954796     2     5     5     1
 -0.5761970429     2     5     5     2
 -0.0037242303     2     5     5     4
 -0.0504061460     2     5     5     6
 0.1111229637     2     6     1     1
 0.0009481299     2     6     1     2
 0.0001487215     2     6     1     4
 0.0519458438     2     6     3     3
 0.0054115198     2     6     4     1
 0.0221936650     2     6     4     2
 0.0509745849     2     6     4     4
 0.0504061460     2     6     5     5
 -0.0014141325     2     6     6     1
 -0.2814452931     2     6     6     2
 0.0104078718     2     6     6     4
 -0.8705512740     3     1     1     3
 -0.0312139516     3     1     2     3
 -0.0105894196     3     1     4     3
 -0.0041198459     3     1     6     3
 -0.0312139516     3     2     1     3
 -0.5283833156     3     2     2     3
 -0.0014553151     3     2     4     3
 -0.0519458438     3     2     6     3
 0.8705512740     3     3     1     1
 0.0312139516     3     3     1     2
 0.0105894196     3     3     1     4
 0.0041198459     3     3     1     6
 0.0312139516     3     3     2     1
 0.5283833156     3     3     2     2
 0.0014553151     3     3     2     4
 0.0519458438     3     3     2     6
 0.0105894196     3     3     4     1
 0.0014553151     3     3     4     2
 0.5620022822     3     3     4     4
 -0.0257254944     3     3     4     6
 0.5844787037     3     3     5     5
 0.0041198459     3     3     6     1
 0.0519458438     3     3     6     2
 -0.0257254944     3     3     6     4
 0.2841115388     3     3     6     6
 -0.0105894196     3     4     1     3
 -0.0014553151     3     4     2     3
 -0.5620022822     3     4     4     3
 0.0257254944     3     4     6     3
 -0.5844787037     3     5     5     3
 -0.0041198459     3     6     1     3
 -0.0519458438     3     6     2     3
 0.0257254944     3     6     4     3
 -0.2841115388     3     6     6     3
 -0.0663096430     4     1     1     2
 -0.9479556339     4     1     1     4
 0.0537720300     4     1     1     6
 0.0070948118     4     1     2     2
 -0.0359232342     4     1     2     4
 0.0054115198     4     1     2     6
 0.0105894196     4     1     3     3
 0.0135706387     4     1     5     5
 0.0001487215     4     1     6     2
 -0.0079509179     4     1     6     4
 0.0031926946     4     1     6     6
 0.0663096430     4     2     1     1
 -0.0359232342     4     2     1     4
 0.0058747939     4     2     1     6
 -0.0070948118     4     2     2     1
 -0.5500169246     4     2     2     4
 0.0221936650     4     2     2     6
 0.0014553151     4     2     3     3
 0.0037242303     4     2     5     5
 -0.0001487215     4     2     6     1
 -0.0509745849     4     2     6     4
 -0.0104078718     4     2     6     6
 -0.0105894196     4     3     3     1
 -0.0014553151     4     3     3     2
 -0.5620022822     4     3     3     4
 0.0257254944     4     3     3     6
 0.9479556339     4     4     1     1
 0.0359232342     4     4     1     2
 0.0079509179     4     4     1     6
 0.0359232342     4     4     2     1
 0.5500169246     4     4     2     2
 0.0509745849     4     4     2     6
 0.5620022822     4     4     3     3
 0.6028899468     4     4     5     5
 0.0079509179     4     4     6     1
 0.0509745849     4     4     6     2
 0.2719105622     4     4     6     6
 -0.0135706387     4     5     5     1
 -0.0037242303     4     5     5     2
 -0.6028899468     4     5     5     4
 0.0300284166     4     5     5     6
 -0.0537720300     4     6     1     1
 -0.0058747939     4     6     1     2
 -0.0079509179     4     6     1     4
 -0.0054115198     4     6     2     1
 -0.0221936650     4     6     2     2
 -0.0509745849     4     6     2     4
 -0.0257254944     4     6     3     3
 -0.0300284166     4     6     5     5
 -0.0031926946     4     6     6     1
 0.0104078718     4     6     6     2
 -0.2719105622     4     6     6     4
 -0.9922837623     5     1     1     5
 -0.0405954796     5     1     2     5
 -0.0135706387     5     1     4     5
 -0.0076031960     5     1     6     5
 -0.0405954796     5     2     1     5
 -0.5761970429     5     2     2     5
 -0.0037242303     5     2     4     5
 -0.0504061460     5     2     6     5
 -0.5844787037     5     3     3     5
 -0.0135706387     5     4     1     5
 -0.0037242303     5     4     2     5
 -0.6028899468     5     4     4     5
 0.0300284166     5     4     6     5
 0.9922837623     5     5     1     1
 0.0405954796     5     5     1     2
 0.0135706387     5     5     1     4
 0.0076031960     5     5     1     6
 0.0405954796     5     5     2     1
 0.5761970429     5     5     2     2
 0.0037242303     5     5     2     4
 0.0504061460     5     5     2     6
 0.5844787037     5     5     3     3
 0.0135706387     5     5     4     1
 0.0037242303     5     5     4     2
 0.6028899468     5     5     4     4
 -0.0300284166     5     5     4     6
 0.0076031960     5     5     6     1
 0.0504061460     5     5     6     2
 -0.0300284166     5     5     6     4
 0.2791471089     5     5     6     6
 -0.0076031960     5     6     1     5
 -0.0504061460     5     6     2     5
 0.0300284166     5     6     4     5
 -0.2791471089     5     6     6     5
 -0.1111229637     6     1     1     2
 0.0537720300     6     1     1     4
 -0.3159319706     6     1     1     6
 -0.0009481299     6     1     2     2
 0.0058747939     6     1     2     4
 -0.0014141325     6     1     2     6
 0.0041198459     6     1     3     3
 -0.0001487215     6     1     4     2
 0.0079509179     6     1     4     4
 -0.0031926946     6     1     4     6
 0.0076031960     6     1     5     5
 0.1111229637     6     2     1     1
 0.0054115198     6     2     1     4
 -0.0014141325     6     2     1     6
 0.0009481299     6     2     2     1
 0.0221936650     6     2     2     4
 -0.2814452931     6     2     2     6
 0.0519458438     6     2     3     3
 0.0001487215     6     2     4     1
 0.0509745849     6     2     4     4
 0.0104078718     6     2     4     6
 0.0504061460     6     2     5     5
 -0.0041198459     6     3     3     1
 -0.0519458438     6     3     3     2
 0.0257254944     6     3     3     4
 -0.2841115388     6     3     3     6
 -0.0537720300     6     4     1     1
 -0.0054115198     6     4     1     2
 -0.0031926946     6     4     1     6
 -0.0058747939     6     4     2     1
 -0.0221936650     6     4     2     2
 0.0104078718     6     4     2     6
 -0.0257254944     6     4     3     3
 -0.0079509179     6     4     4     1
 -0.0509745849     6     4     4     2
 -0.2719105622     6     4     4     6
 -0.0300284166     6     4     5     5
 -0.0076031960     6     5     5     1
 -0.0504061460     6     5     5     2
 0.0300284166     6     5     5     4
 -0.2791471089     6     5     5     6
 0.3159319706     6     6     1     1
 0.0014141325     6     6     1     2
 0.0031926946     6     6     1     4
 0.0014141325     6     6     2     1
 0.2814452931     6     6     2     2
 -0.0104078718     6     6     2     4
 0.2841115388     6     6     3     3
 0.0031926946     6     6     4     1
 -0.0104078718     6     6     4     2
 0.2719105622     6     6     4     4
 0.2791471089     6     6     5     5
0.0 0 0 0 0
 0.9843730138     1     1     2     2
 0.0663096430     1     1     2     4
 0.1111229637     1     1     2     6
 0.8705512740     1     1     3     3
 0.0663096430     1     1     4     2
 0.9479556339     1     1     4     4
 -0.0537720300     1     1     4     6
 0.9922837623     1     1     5     5
 0.1111229637     1     1     6     2
 -0.0537720300     1     1     6     4
 0.3159319706     1     1     6     6
 -0.9843730138     1     2     2     1
 -0.0070948118     1     2     2     4
 0.0009481299     1     2     2     6
 0.0312139516     1     2     3     3
 -0.0663096430     1     2     4     1
 0.0359232342     1     2     4     4
 -0.0058747939     1     2     4     6
 0.0405954796     1     2     5     5
 -0.1111229637     1     2     6     1
 -0.0054115198     1     2     6     4
 0.0014141325     1     2     6     6
 -0.8705512740     1     3     3     1
 -0.0312139516     1     3     3     2
 -0.0105894196     1     3     3     4
 -0.0041198459     1     3     3     6
 -0.0663096430     1     4     2     1
 0.0070948118     1     4     2     2
 0.0001487215     1     4     2     6
 0.0105894196     1     4     3     3
 -0.9479556339     1     4     4     1
 -0.0359232342     1     4     4     2
 -0.0079509179     1     4     4     6
 0.0135706387     1     4     5     5
 0.0537720300     1     4     6     1
 0.0054115198     1     4     6     2
 0.0031926946     1     4     6     6
 -0.9922837623     1     5     5     1
 -0.0405954796     1     5     5     2
 -0.0135706387     1     5     5     4
 -0.0076031960     1     5     5     6
 -0.1111229637     1     6     2     1
 -0.0009481299     1     6     2     2
 -0.0001487215     1     6     2     4
 0.0041198459     1     6     3     3
 0.0537720300     1     6     4     1
 0.0058747939     1     6     4     2
 0.0079509179     1     6     4     4
 0.0076031960     1     6     5     5
 -0.3159319706     1     6     6     1
 -0.0014141325     1     6     6     2
 -0.0031926946     1     6     6     4
 -0.9843730138     2     1     1     2
 -0.0663096430     2     1     1     4
 -0.1111229637     2     1     1     6
 0.0312139516     2     1     3     3
 -0.0070948118     2     1     4     2
 0.0359232342     2     1     4     4
 -0.0054115198     2     1     4     6
 0.0405954796     2     1     5     5
 0.0009481299     2     1     6     2
 -0.0058747939     2     1     6     4
 0.0014141325     2     1     6     6
 0.9843730138     2     2     1     1
 0.0070948118     2     2     1     4
 -0.0009481299     2     2     1     6
 0.5283833156     2     2     3     3
 0.0070948118     2     2     4     1
 0.5500169246     2     2     4     4
 -0.0221936650     2     2     4     6
 0.5761970429     2     2     5     5
 -0.0009481299     2     2     6     1
 -0.0221936650     2     2     6     4
 0.2814452931     2     2     6     6
 -0.0312139516     2     3     3     1
 -0.5283833156     2     3     3     2
 -0.0014553151     2     3     3     4
 -0.0519458438     2     3     3     6
 0.0663096430     2     4     1     1
 -0.0070948118     2     4     1     2
 -0.0001487215     2     4     1     6
 0.0014553151     2     4     3     3
 -0.0359232342     2     4     4     1
 -0.5500169246     2     4     4     2
 -0.0509745849     2     4     4     6
 0.0037242303     2     4     5     5
 0.0058747939     2     4     6     1
 0.0221936650     2     4     6     2
 -0.0104078718     2     4     6     6
 -0.0405954796     2     5     5     1
 -0.5761970429     2     5     5     2
 -0.0037242303     2     5     5     4
 -0.0504061460     2     5     5     6
 0.1111229637     2     6     1     1
 0.0009481299     2     6     1     2
 0.0001487215     2     6     1     4
 0.0519458438     2     6     3     3
 0.0054115198     2     6     4     1
 0.0221936650     2     6     4     2
 0.0509745849     2     6     4     4
 0.0504061460     2     6     5     5
 -0.0014141325     2     6     6     1
 -0.2814452931     2     6     6     2
 0.0104078718     2     6     6     4
 -0.8705512740     3     1     1     3
 -0.0312139516     3     1     2     3
 -0.0105894196     3     1     4     3
 -0.0041198459     3     1     6     3
 -0.0312139516     3     2     1     3
 -0.5283833156     3     2     2     3
 -0.0014553151     3     2     4     3
 -0.0519458438     3     2     6     3
 0.8705512740     3     3     1     1
 0.0312139516     3     3     1     2
 0.0105894196     3     3     1     4
 0.0041198459     3     3     1     6
 0.0312139516     3     3     2     1
 0.5283833156     3     3     2     2
 0.0014553151     3     3     2     4
 0.0519458438     3     3     2     6
 0.0105894196     3     3     4     1
 0.0014553151     3     3     4     2
 0.5620022822     3     3     4     4
 -0.0257254944     3     3     4     6
 0.5844787037     3     3     5     5
 0.0041198459     3     3     6     1
 0.0519458438     3     3     6     2
 -0.0257254944     3     3     6     4
 0.2841115388     3     3     6     6
 -0.0105894196     3     4     1     3
 -0.0014553151     3     4     2     3
 -0.5620022822     3     4     4     3
 0.0257254944     3     4     6     3
 -0.5844787037     3     5     5     3
 -0.0041198459     3     6     1     3
 -0.0519458438     3     6     2     3
 0.0257254944     3     6     4     3
 -0.2841115388     3     6     6     3
 -0.0663096430     4     1     1     2
 -0.9479556339     4     1     1     4
 0.0537720300     4     1     1     6
 0.0070948118     4     1     2     2
 -0.0359232342     4     1     2     4
 0.0054115198     4     1     2     6
 0.0105894196     4     1     3     3
 0.0135706387     4     1     5     5
 0.0001487215     4     1     6     2
 -0.0079509179     4     1     6     4
 0.0031926946     4     1     6     6
 0.0663096430     4     2     1     1
 -0.0359232342     4     2     1     4
 0.0058747939     4     2     1     6
 -0.0070948118     4     2     2     1
 -0.5500169246     4     2     2     4
 0.0221936650     4     2     2     6
 0.0014553151     4     2     3     3
 0.0037242303     4     2     5     5
 -0.0001487215     4     2     6     1
 -0.0509745849     4     2     6     4
 -0.0104078718     4     2     6     6
 -0.0105894196     4     3     3     1
 -0.0014553151     4     3     3     2
 -0.5620022822     4     3     3     4
 0.0257254944     4     3     3     6
 0.9479556339     4     4     1     1
 0.0359232342     4     4     1     2
 0.0079509179     4     4     1     6
 0.0359232342     4     4     2     1
 0.5500169246     4     4     2     2
 0.0509745849     4     4     2     6
 0.5620022822     4     4     3     3
 0.6028899468     4     4     5     5
 0.0079509179     4     4     6     1
 0.0509745849     4     4     6     2
 0.2719105622     4     4     6     6
 -0.0135706387     4     5     5     1
 -0.0037242303     4     5     5     2
 -0.6028899468     4     5     5     4
 0.0300284166     4     5     5     6
 -0.0537720300     4     6     1     1
 -0.0058747939     4     6     1     2
 -0.0079509179     4     6     1     4
 -0.0054115198     4     6     2     1
 -0.0221936650     4     6     2     2
 -0.0509745849     4     6     2     4
 -0.0257254944     4     6     3     3
 -0.0300284166     4     6     5     5
 -0.0031926946     4     6     6     1
 0.0104078718     4     6     6     2
 -0.2719105622     4     6     6     4
 -0.9922837623     5     1     1     5
 -0.0405954796     5     1     2     5
 -0.0135706387     5     1     4     5
 -0.0076031960     5     1     6     5
 -0.0405954796     5     2     1     5
 -0.5761970429     5     2     2     5
 -0.0037242303     5     2     4     5
 -0.0504061460     5     2     6     5
 -0.5844787037     5     3     3     5
 -0.0135706387     5     4     1     5
 -0.0037242303     5     4     2     5
 -0.6028899468     5     4     4     5
 0.0300284166     5     4     6     5
 0.9922837623     5     5     1     1
 0.0405954796     5     5     1     2
 0.0135706387     5     5     1     4
 0.0076031960     5     5     1     6
 0.0405954796     5     5     2     1
 0.5761970429     5     5     2     2
 0.0037242303     5     5     2     4
 0.0504061460     5     5     2     6
 0.5844787037     5     5     3     3
 0.0135706387     5     5     4     1
 0.0037242303     5     5     4     2
 0.6028899468     5     5     4     4
 -0.0300284166     5     5     4     6
 0.0076031960     5     5     6     1
 0.0504061460     5     5     6     2
 -0.0300284166     5     5     6     4
 0.2791471089     5     5     6     6
 -0.0076031960     5     6     1     5
 -0.0504061460     5     6     2     5
 0.0300284166     5     6     4     5
 -0.2791471089     5     6     6     5
 -0.1111229637     6     1     1     2
 0.0537720300     6     1     1     4
 -0.3159319706     6     1     1     6
 -0.0009481299     6     1     2     2
 0.0058747939     6     1     2     4
 -0.0014141325     6     1     2     6
 0.0041198459     6     1     3     3
 -0.0001487215     6     1     4     2
 0.0079509179     6     1     4     4
 -0.0031926946     6     1     4     6
 0.0076031960     6     1     5     5
 0.1111229637     6     2     1     1
 0.0054115198     6     2     1     4
 -0.0014141325     6     2     1     6
 0.0009481299     6     2     2     1
 0.0221936650     6     2     2     4
 -0.2814452931     6     2     2     6
 0.0519458438     6     2     3     3
 0.0001487215     6     2     4     1
 0.0509745849     6     2     4     4
 0.0104078718     6     2     4     6
 0.0504061460     6     2     5     5
 -0.0041198459     6     3     3     1
 -0.0519458438     6     3     3     2
 0.0257254944     6     3     3     4
 -0.2841115388     6     3     3     6
 -0.0537720300     6     4     1     1
 -0.0054115198     6     4     1     2
 -0.0031926946     6     4     1     6
 -0.0058747939     6     4     2     1
 -0.0221936650     6     4     2     2
 0.0104078718     6     4     2     6
 -0.0257254944     6     4     3     3
 -0.0079509179     6     4     4     1
 -0.0509745849     6     4     4     2
 -0.2719105622     6     4     4     6
 -0.0300284166     6     4     5     5
 -0.0076031960     6     5     5     1
 -0.0504061460     6     5     5     2
 0.0300284166     6     5     5     4
 -0.2791471089     6     5     5     6
 0.3159319706     6     6     1     1
 0.0014141325     6     6     1     2
 0.0031926946     6     6     1     4
 0.0014141325     6     6     2     1
 0.2814452931     6     6     2     2
 -0.0104078718     6     6     2     4
 0.2841115388     6     6     3     3
 0.0031926946     6     6     4     1
 -0.0104078718     6     6     4     2
 0.2719105622     6     6     4     4
 0.2791471089     6     6     5     5
0.0 0 0 0 0
 4.7184353239     1     1     1     1
 0.4277139611     1     1     1     2
 0.1355531910     1     1     1     4
 0.1101757102     1     1     1     6
 0.4277139611     1     1     2     1
 1.0477192852     1     1     2     2
 0.0822302974     1     1     2     4
 0.1299521438     1     1     2     6
 0.8917242368     1     1     3     3
 0.1355531910     1     1     4     1
 0.0822302974     1     1     4     2
 0.9787206703     1     1     4     4
 -0.0543570604     1     1     4     6
 1.0228005306     1     1     5     5
 0.1101757102     1     1     6     1
 0.1299521438     1     1     6     2
 -0.0543570604     1     1     6     4
 0.3216080009     1     1     6     6
 0.4277139611     1     2     1     1
 0.0593530568     1     2     1     2
 0.0159743653     1     2     1     4
 0.0177818425     1     2     1     6
 0.0633462714     1     2     2     1
 0.0146735910     1     2     2     2
 0.0074113492     1     2     2     4
 0.0020542100     1     2     2     6
 0.0075209486     1     2     3     3
 0.0159206544     1     2     4     1
 0.0076916024     1     2     4     2
 0.0133915805     1     2     4     4
 0.0008137259     1     2     4     6
 0.0121162319     1     2     5     5
 0.0188291801     1     2     6     1
 0.0009894007     1     2     6     2
 0.0010206444     1     2     6     4
 0.0009318038     1     2     6     6
 0.0164599091     1     3     1     3
 -0.0227907933     1     3     2     3
 0.0211729628     1     3     3     1
 -0.0236930030     1     3     3     2
 -0.0030586191     1     3     3     4
 -0.0036189613     1     3     3     6
 -0.0026189258     1     3     4     3
 -0.0034598955     1     3     6     3
 0.1355531910     1     4     1     1
 0.0159743653     1     4     1     2
 0.0256905765     1     4     1     4
 -0.0002408992     1     4     1     6
 0.0159206544     1     4     2     1
 0.0145061610     1     4     2     2
 -0.0217890062     1     4     2     4
 0.0065928817     1     4     2     6
 0.0075308005     1     4     3     3
 0.0307650364     1     4     4     1
 -0.0225316537     1     4     4     2
 -0.0080005001     1     4     4     4
 -0.0027709532     1     4     4     6
 0.0047766896     1     4     5     5
 -0.0005850304     1     4     6     1
 0.0064321642     1     4     6     2
 -0.0023632235     1     4     6     4
 0.0038972771     1     4     6     6
 0.0250626183     1     5     1     5
 -0.0281162392     1     5     2     5
 -0.0084594736     1     5     4     5
 0.0305167683     1     5     5     1
 -0.0284792477     1     5     5     2
 -0.0087939491     1     5     5     4
 -0.0056402334     1     5     5     6
 -0.0050157938     1     5     6     5
 0.1101757102     1     6     1     1
 0.0177818425     1     6     1     2
 -0.0002408992     1     6     1     4
 0.0062216043     1     6     1     6
 0.0188291801     1     6     2     1
 0.0011060801     1     6     2     2
 0.0064441602     1     6     2     4
 -0.0008832407     1     6     2     6
 0.0005008846     1     6     3     3
 -0.0005850304     1     6     4     1
 0.0066885198     1     6     4     2
 0.0051799647     1     6     4     4
 0.0011184425     1     6     4     6
 0.0019629626     1     6     5     5
 0.0056760303     1     6     6     1
 -0.0004823287     1     6     6     2
 0.0007045825     1     6     6     4
 -0.0004027005     1     6     6     6
 0.4277139611     2     1     1     1
 0.0633462714     2     1     1     2
 0.0159206544     2     1     1     4
 0.0188291801     2     1     1     6
 0.0593530568     2     1     2     1
 0.0146735910     2     1     2     2
 0.0076916024     2     1     2     4
 0.0009894007     2     1     2     6
 0.0075209486     2     1     3     3
 0.0159743653     2     1     4     1
 0.0074113492     2     1     4     2
 0.0133915805     2     1     4     4
 0.0010206444     2     1     4     6
 0.0121162319     2     1     5     5
 0.0177818425     2     1     6     1
 0.0020542100     2     1     6     2
 0.0008137259     2     1     6     4
 0.0009318038     2     1     6     6
 1.0477192852     2     2     1     1
 0.0146735910     2     2     1     2
 0.0145061610     2     2     1     4
 0.0011060801     2     2     1     6
 0.0146735910     2     2     2     1
 0.7435405264     2     2     2     2
 -0.0174916649     2     2     2     4
 0.0751719687     2     2     2     6
 0.6741433561     2     2     3     3
 0.0145061610     2     2     4     1
 -0.0174916649     2     2     4     2
 0.6672908093     2     2     4     4
 -0.0357036194     2     2     4     6
 0.6955109247     2     2     5     5
 0.0011060801     2     2     6     1
 0.0751719687     2     2     6     2
 -0.0357036194     2     2     6     4
 0.2998666473     2     2     6     6
 -0.0227907933     2     3     1     3
 0.1403840643     2     3     2     3
 -0.0236930030     2     3     3     1
 0.1457600405     2     3     3     2
 -0.0134440202     2     3     3     4
 0.0041685384     2     3     3     6
 -0.0140762524     2     3     4     3
 0.0040756861     2     3     6     3
 0.0822302974     2     4     1     1
 0.0074113492     2     4     1     2
 -0.0217890062     2     4     1     4
 0.0064441602     2     4     1     6
 0.0076916024     2     4     2     1
 -0.0174916649     2     4     2     2
 0.1120557399     2     4     2     4
 -0.0131266731     2     4     2     6
 -0.0119887051     2     4     3     3
 -0.0225316537     2     4     4     1
 0.1172738847     2     4     4     2
 0.0616600097     2     4     4     4
 0.0005434225     2     4     4     6
 0.0305499929     2     4     5     5
 0.0066885198     2     4     6     1
 -0.0135099544     2     4     6     2
 0.0008369547     2     4     6     4
 -0.0201331107     2     4     6     6
 -0.0281162392     2     5     1     5
 0.1149867172     2     5     2     5
 0.0270324328     2     5     4     5
 -0.0284792477     2     5     5     1
 0.1193138818     2     5     5     2
 0.0268257626     2     5     5     4
 0.0153616896     2     5     5     6
 0.0147662135     2     5     6     5
 0.1299521438     2     6     1     1
 0.0020542100     2     6     1     2
 0.0065928817     2     6     1     4
 -0.0008832407     2     6     1     6
 0.0009894007     2     6     2     1
 0.0751719687     2     6     2     2
 -0.0131266731     2     6     2     4
 0.0237790397     2     6     2     6
 0.0561143822     2     6     3     3
 0.0064321642     2     6     4     1
 -0.0135099544     2     6     4     2
 0.0515180074     2     6     4     4
 -0.0131318568     2     6     4     6
 0.0657678356     2     6     5     5
 -0.0004823287     2     6     6     1
 0.0184213542     2     6     6     2
 -0.0097252389     2     6     6     4
 0.0074837621     2     6     6     6
 0.0211729628     3     1     1     3
 -0.0236930030     3     1     2     3
 0.0164599091     3     1     3     1
 -0.0227907933     3     1     3     2
 -0.0026189258     3     1     3     4
 -0.0034598955     3     1     3     6
 -0.0030586191     3     1     4     3
 -0.0036189613     3     1     6     3
 -0.0236930030     3     2     1     3
 0.1457600405     3     2     2     3
 -0.0227907933     3     2     3     1
 0.1403840643     3     2     3     2
 -0.0140762524     3     2     3     4
 0.0040756861     3     2     3     6
 -0.0134440202     3     2     4     3
 0.0041685384     3     2     6     3
 0.8917242368     3     3     1     1
 0.0075209486     3     3     1     2
 0.0075308005     3     3     1     4
 0.0005008846     3     3     1     6
 0.0075209486     3     3     2     1
 0.6741433561     3     3     2     2
 -0.0119887051     3     3     2     4
 0.0561143822     3     3     2     6
 0.6488600696     3     3     3     3
 0.0075308005     3     3     4     1
 -0.0119887051     3     3     4     2
 0.5976327947     3     3     4     4
 -0.0246251723     3     3     4     6
 0.6118174417     3     3     5     5
 0.0005008846     3     3     6     1
 0.0561143822     3     3     6     2
 -0.0246251723     3     3     6     4
 0.2952447534     3     3     6     6
 -0.0030586191     3     4     1     3
 -0.0134440202     3     4     2     3
 -0.0026189258     3     4     3     1
 -0.0140762524     3     4     3     2
 0.0287092574     3     4     3     4
 0.0015728273     3     4     3     6
 0.0356305125     3     4     4     3
 0.0011003221     3     4     6     3
 0.0207951651     3     5     3     5
 0.0273387380     3     5     5     3
 -0.0036189613     3     6     1     3
 0.0041685384     3     6     2     3
 -0.0034598955     3     6     3     1
 0.0040756861     3     6     3     2
 0.0015728273     3     6     3     4
 0.0144964899     3     6     3     6