&FCI NORB= 13,NELEC= 16,MS2=0,
 ORBSYM=1,1,1,1,1,1,1,1,1,1,1,1,1
 ISYM=1,
&END
 0.3951716652     1     1     2     2
 -0.0050933477     1     1     2     4
 -0.0013699363     1     1     2    11
 0.5961446240     1     1     3     3
 -0.1106181832     1     1     3     6
 -0.0343333024     1     1     3     9
 -0.0050933477     1     1     4     2
 0.4823027426     1     1     4     4
 0.0588518412     1     1     4    11
 0.4837438659     1     1     5     5
 -0.0697344950     1     1     5    12
 -0.1106181832     1     1     6     3
 0.5632327902     1     1     6     6
 -0.0481523836     1     1     6     9
 0.4496881409     1     1     7     7
 -0.0562415871     1     1     7    13
 0.5352346281     1     1     8     8
 -0.0343333024     1     1     9     3
 -0.0481523836     1     1     9     6
 0.2245001444     1     1     9     9
 0.4012402730     1     1    10    10
 -0.0013699363     1     1    11     2
 0.0588518412     1     1    11     4
 0.2053173520     1     1    11    11
 -0.0697344950     1     1    12     5
 0.2205481708     1     1    12    12
 -0.0562415871     1     1    13     7
 0.1892918972     1     1    13    13
 -0.3951716652     1     2     2     1
 -0.0041758249     1     2     2     3
 0.0127498585     1     2     2     6
 -0.0025636840     1     2     2     9
 0.1502319327     1     2     3     4
 0.0342467555     1     2     3    11
 0.0050933477     1     2     4     1
 0.1503444570     1     2     4     3
 0.1295815691     1     2     4     6
 -0.0422727444     1     2     4     9
 -0.1667073185     1     2     5     7
 0.0332589887     1     2     5    13
 0.1299146538     1     2     6     4
 0.0104933208     1     2     6    11
 -0.1665035513     1     2     7     5
 0.0276996064     1     2     7    12
 -0.1124536701     1     2     8    10
 -0.0423295053     1     2     9     4
 -0.0373147848     1     2     9    11
 -0.1122065221     1     2    10     8
 0.0013699363     1     2    11     1
 0.0342619592     1     2    11     3
 0.0104046435     1     2    11     6
 -0.0372959420     1     2    11     9
 0.0277821590     1     2    12     7
 -0.0372125926     1     2    12    13
 0.0331764689     1     2    13     5
 -0.0371787615     1     2    13    12
 0.0041758249     1     3     2     2
 -0.0001135480     1     3     2     4
 -0.0000261645     1     3     2    11
 -0.5961446240     1     3     3     1
 0.0091000755     1     3     3     6
 -0.0026219845     1     3     3     9
 -0.1503444570     1     3     4     2
 -0.0052617526     1     3     4     4
 -0.0011481979     1     3     4    11
 -0.0117309308     1     3     5     5
 0.0045854884     1     3     5    12
 0.1106181832     1     3     6     1
 -0.0177819804     1     3     6     6
 0.0049091198     1     3     6     9
 -0.0087157484     1     3     7     7
 0.0028589644     1     3     7    13
 -0.0137238284     1     3     8     8
 0.0343333024     1     3     9     1
 0.0023417247     1     3     9     6
 -0.0009082948     1     3     9     9
 -0.0067011255     1     3    10    10
 -0.0342619592     1     3    11     2
 -0.0007864340     1     3    11     4
 -0.0005604239     1     3    11    11
 0.0030030592     1     3    12     5
 -0.0016804990     1     3    12    12
 0.0020991473     1     3    13     7
 -0.0010652495     1     3    13    13
 0.0050933477     1     4     2     1
 0.0001135480     1     4     2     3
 -0.0003340000     1     4     2     6
 0.0000676888     1     4     2     9
 -0.1502319327     1     4     3     2
 -0.0002188119     1     4     3    11
 -0.4823027426     1     4     4     1
 0.0052617526     1     4     4     3
 -0.0027252343     1     4     4     6
 -0.0000803616     1     4     4     9
 0.0060256071     1     4     5     7
 -0.0025312423     1     4     5    13
 -0.1299146538     1     4     6     2
 -0.0001638971     1     4     6    11
 0.0080776035     1     4     7     5
 -0.0041251639     1     4     7    12
 0.0047145110     1     4     8    10
 0.0423295053     1     4     9     2
 -0.0004320973     1     4     9    11
 0.0054547356     1     4    10     8
 -0.0588518412     1     4    11     1
 0.0007864340     1     4    11     3
 -0.0005530776     1     4    11     6
 -0.0004951397     1     4    11     9
 -0.0018800698     1     4    12     7
 0.0003138195     1     4    12    13
 -0.0018796349     1     4    13     5
 0.0005676409     1     4    13    12
 -0.0001997192     1     5     2     7
 0.0000771191     1     5     2    13
 0.0011858194     1     5     3    12
 -0.0020387793     1     5     4     7
 -0.0004396720     1     5     4    13
 -0.4837438659     1     5     5     1
 0.0117309308     1     5     5     3
 0.0036647358     1     5     5     6
 -0.0018038146     1     5     5     9
 0.0014232804     1     5     6    12
 0.1665035513     1     5     7     2
 -0.0080776035     1     5     7     4
 -0.0015677809     1     5     7    11
 0.0015906463     1     5     9    12
 -0.0000071368     1     5    11     7
 0.0011500487     1     5    11    13
 0.0697344950     1     5    12     1
 -0.0030030592     1     5    12     3
 -0.0004510366     1     5    12     6
 0.0024032790     1     5    12     9
 -0.0331764689     1     5    13     2
 0.0018796349     1     5    13     4
 0.0018101237     1     5    13    11
 -0.0127498585     1     6     2     2
 0.0003340000     1     6     2     4
 0.0000907789     1     6     2    11
 0.1106181832     1     6     3     1
 -0.0091000755     1     6     3     3
 0.0023123995     1     6     3     9
 -0.1295815691     1     6     4     2
 0.0027252343     1     6     4     4
 0.0004036878     1     6     4    11
 -0.0036647358     1     6     5     5
 0.0019478920     1     6     5    12
 -0.5632327902     1     6     6     1
 0.0177819804     1     6     6     3
 -0.0042917945     1     6     6     9
 -0.0017427717     1     6     7     7
 0.0010018273     1     6     7    13
 -0.0040727582     1     6     8     8
 0.0481523836     1     6     9     1
 -0.0023417247     1     6     9     3
 0.0003952621     1     6     9     9
 -0.0009592747     1     6    10    10
 -0.0104046435     1     6    11     2
 0.0005530776     1     6    11     4
 0.0006028893     1     6    11    11
 0.0004510366     1     6    12     5
 -0.0004015488     1     6    12    12
 0.0002596857     1     6    13     7
 -0.0000275317     1     6    13    13
 0.0001997192     1     7     2     5
 -0.0000892106     1     7     2    12
 0.0004725104     1     7     3    13
 0.0020387793     1     7     4     5
 -0.0020366506     1     7     4    12
 0.1667073185     1     7     5     2
 -0.0060256071     1     7     5     4
 -0.0015708579     1     7     5    11
 0.0006309958     1     7     6    13
 -0.4496881409     1     7     7     1
 0.0087157484     1     7     7     3
 0.0017427717     1     7     7     6
 -0.0014334788     1     7     7     9
 0.0004088532     1     7     9    13
 0.0000071368     1     7    11     5
 0.0004075729     1     7    11    12
 -0.0277821590     1     7    12     2
 0.0018800698     1     7    12     4
 0.0012728137     1     7    12    11
 0.0562415871     1     7    13     1
 -0.0020991473     1     7    13     3
 -0.0002596857     1     7    13     6
 0.0009668522     1     7    13     9
 -0.0002348399     1     8     2    10
 -0.0015475685     1     8     4    10
 -0.5352346281     1     8     8     1
 0.0137238284     1     8     8     3
 0.0040727582     1     8     8     6
 -0.0037534701     1     8     8     9
 0.1122065221     1     8    10     2
 -0.0054547356     1     8    10     4
 -0.0018513315     1     8    10    11
 -0.0001563935     1     8    11    10
 0.0025636840     1     9     2     2
 -0.0000676888     1     9     2     4
 -0.0000205384     1     9     2    11
 0.0343333024     1     9     3     1
 0.0026219845     1     9     3     3
 -0.0023123995     1     9     3     6
 0.0422727444     1     9     4     2
 0.0000803616     1     9     4     4
 0.0000578184     1     9     4    11
 0.0018038146     1     9     5     5
 -0.0008378637     1     9     5    12
 0.0481523836     1     9     6     1
 -0.0049091198     1     9     6     3
 0.0042917945     1     9     6     6
 0.0014334788     1     9     7     7
 -0.0005768981     1     9     7    13
 0.0037534701     1     9     8     8
 -0.2245001444     1     9     9     1
 0.0009082948     1     9     9     3
 -0.0003952621     1     9     9     6
 0.0016130108     1     9    10    10
 0.0372959420     1     9    11     2
 0.0004951397     1     9    11     4
 0.0000594112     1     9    11    11
 -0.0024032790     1     9    12     5
 0.0010926924     1     9    12    12
 -0.0009668522     1     9    13     7
 0.0003590857     1     9    13    13
 0.0002348399     1    10     2     8
 0.0015475685     1    10     4     8
 0.1124536701     1    10     8     2
 -0.0047145110     1    10     8     4
 -0.0018390458     1    10     8    11
 -0.4012402730     1    10    10     1
 0.0067011255     1    10    10     3
 0.0009592747     1    10    10     6
 -0.0016130108     1    10    10     9
 0.0001563935     1    10    11     8
 0.0013699363     1    11     2     1
 0.0000261645     1    11     2     3
 -0.0000907789     1    11     2     6
 0.0000205384     1    11     2     9
 -0.0342467555     1    11     3     2
 0.0002188119     1    11     3     4
 -0.0588518412     1    11     4     1
 0.0011481979     1    11     4     3
 -0.0004036878     1    11     4     6
 -0.0000578184     1    11     4     9
 0.0015708579     1    11     5     7
 -0.0006987861     1    11     5    13
 -0.0104933208     1    11     6     2
 0.0001638971     1    11     6     4
 0.0015677809     1    11     7     5
 -0.0009316284     1    11     7    12
 0.0018390458     1    11     8    10
 0.0373147848     1    11     9     2
 0.0004320973     1    11     9     4
 0.0018513315     1    11    10     8
 -0.2053173520     1    11    11     1
 0.0005604239     1    11    11     3
 -0.0006028893     1    11    11     6
 -0.0000594112     1    11    11     9
 -0.0012728137     1    11    12     7
 0.0003496878     1    11    12    13
 -0.0018101237     1    11    13     5
 0.0006762729     1    11    13    12
 0.0000000001     1    11    13    13
 0.0000892106     1    12     2     7
 -0.0000361408     1    12     2    13
 -0.0011858194     1    12     3     5
 0.0020366506     1    12     4     7
 -0.0002610640     1    12     4    13
 0.0697344950     1    12     5     1
 -0.0045854884     1    12     5     3
 -0.0019478920     1    12     5     6
 0.0008378637     1    12     5     9
 -0.0014232804     1    12     6     5
 -0.0276996064     1    12     7     2
 0.0041251639     1    12     7     4
 0.0009316284     1    12     7    11
 -0.0015906463     1    12     9     5
 -0.0004075729     1    12    11     7
 -0.0003267831     1    12    11    13
 -0.2205481708     1    12    12     1
 0.0016804990     1    12    12     3
 0.0004015488     1    12    12     6
 -0.0010926924     1    12    12     9
 0.0371787615     1    12    13     2
 -0.0005676409     1    12    13     4
 -0.0006762729     1    12    13    11
 -0.0000771191     1    13     2     5
 0.0000361408     1    13     2    12
 -0.0004725104     1    13     3     7
 0.0004396720     1    13     4     5
 0.0002610640     1    13     4    12
 -0.0332589887     1    13     5     2
 0.0025312423     1    13     5     4
 0.0006987861     1    13     5    11
 -0.0006309958     1    13     6     7
 0.0562415871     1    13     7     1
 -0.0028589644     1    13     7     3
 -0.0010018273     1    13     7     6
 0.0005768981     1    13     7     9
 -0.0004088532     1    13     9     7
 -0.0011500487     1    13    11     5
 0.0003267831     1    13    11    12
 0.0372125926     1    13    12     2
 -0.0003138195     1    13    12     4
 -0.0003496878     1    13    12    11
 -0.1892918972     1    13    13     1
 0.0010652495     1    13    13     3
 0.0000275317     1    13    13     6
 -0.0003590857     1    13    13     9
 -0.0000000001     1    13    13    11
 -0.3951716652     2     1     1     2
 0.0050933477     2     1     1     4
 0.0013699363     2     1     1    11
 -0.0041758249     2     1     3     2
 0.1503444570     2     1     3     4
 0.0342619592     2     1     3    11
 0.1502319327     2     1     4     3
 0.1299146538     2     1     4     6
 -0.0423295053     2     1     4     9
 -0.1665035513     2     1     5     7
 0.0331764689     2     1     5    13
 0.0127498585     2     1     6     2
 0.1295815691     2     1     6     4
 0.0104046435     2     1     6    11
 -0.1667073185     2     1     7     5
 0.0277821590     2     1     7    12
 -0.1122065221     2     1     8    10
 -0.0025636840     2     1     9     2
 -0.0422727444     2     1     9     4
 -0.0372959420     2     1     9    11
 -0.1124536701     2     1    10     8
 0.0342467555     2     1    11     3
 0.0104933208     2     1    11     6
 -0.0373147848     2     1    11     9
 0.0276996064     2     1    12     7
 -0.0371787615     2     1    12    13
 0.0332589887     2     1    13     5
 -0.0372125926     2     1    13    12
 0.3951716652     2     2     1     1
 0.0041758249     2     2     1     3
 -0.0127498585     2     2     1     6
 0.0025636840     2     2     1     9
 0.0041758249     2     2     3     1
 0.5961641447     2     2     3     3
 -0.1108106388     2     2     3     6
 -0.0342885562     2     2     3     9
 0.4822028819     2     2     4     4
 0.0588149142     2     2     4    11
 0.4839958949     2     2     5     5
 -0.0698325432     2     2     5    12
 -0.0127498585     2     2     6     1
 -0.1108106388     2     2     6     3
 0.5640356583     2     2     6     6
 -0.0483145604     2     2     6     9
 0.4495397387     2     2     7     7
 -0.0561784400     2     2     7    13
 0.5355851384     2     2     8     8
 0.0025636840     2     2     9     1
 -0.0342885562     2     2     9     3
 -0.0483145604     2     2     9     6
 0.2245382035     2     2     9     9
 0.4011075341     2     2    10    10
 0.0588149142     2     2    11     4
 0.2053105263     2     2    11    11
 -0.0698325432     2     2    12     5
 0.2205977369     2     2    12    12
 -0.0561784400     2     2    13     7
 0.1892708742     2     2    13    13
 -0.0041758249     2     3     1     2
 0.0001135480     2     3     1     4
 0.0000261645     2     3     1    11
 -0.5961641447     2     3     3     2
 0.0037748573     2     3     3     4
 0.0013313444     2     3     3    11
 -0.1502319327     2     3     4     1
 -0.0109787949     2     3     4     6
 0.0025705914     2     3     4     9
 0.0132432704     2     3     5     7
 -0.0042796200     2     3     5    13
 0.1108106388     2     3     6     2
 -0.0120236392     2     3     6     4
 -0.0029381537     2     3     6    11
 0.0109273865     2     3     7     5
 -0.0037324151     2     3     7    12
 0.0114426026     2     3     8    10
 0.0342885562     2     3     9     2
 0.0016914494     2     3     9     4
 0.0011360813     2     3     9    11
 0.0075974124     2     3    10     8
 -0.0342467555     2     3    11     1
 -0.0015788477     2     3    11     6
 0.0011505565     2     3    11     9
 -0.0032676036     2     3    12     7
 0.0019674779     2     3    12    13
 -0.0025387425     2     3    13     5
 0.0017695144     2     3    13    12
 -0.0050933477     2     4     1     1
 -0.0001135480     2     4     1     3
 0.0003340000     2     4     1     6
 -0.0000676888     2     4     1     9
 -0.1503444570     2     4     3     1
 -0.0037748573     2     4     3     3
 0.0010346081     2     4     3     6
 0.0006295046     2     4     3     9
 -0.4822028819     2     4     4     2
 -0.0000048873     2     4     4    11
 -0.0097623054     2     4     5     5
 0.0040642484     2     4     5    12
 -0.1295815691     2     4     6     1
 0.0120236392     2     4     6     3
 -0.0162890837     2     4     6     6
 0.0016451885     2     4     6     9
 -0.0094377649     2     4     7     7
 0.0034236096     2     4     7    13
 -0.0117791596     2     4     8     8
 0.0422727444     2     4     9     1
 -0.0016914494     2     4     9     3
 0.0026320574     2     4     9     6
 -0.0006550727     2     4     9     9
 -0.0067232114     2     4    10    10
 -0.0588149142     2     4    11     2
 0.0000361800     2     4    11    11
 0.0025107119     2     4    12     5
 -0.0014933425     2     4    12    12
 0.0020212811     2     4    13     7
 -0.0009355472     2     4    13    13
 0.0001997192     2     5     1     7
 -0.0000771191     2     5     1    13
 0.0023024536     2     5     3     7
 -0.0013665516     2     5     3    13
 0.0012240348     2     5     4    12
 -0.4839958949     2     5     5     2
 0.0097623054     2     5     5     4
 0.0025538540     2     5     5    11
 -0.0009578426     2     5     6     7
 -0.0002910139     2     5     6    13
 0.1667073185     2     5     7     1
 -0.0109273865     2     5     7     3
 0.0033391300     2     5     7     6
 0.0004863650     2     5     7     9
 0.0003617640     2     5     9     7
 -0.0005729865     2     5     9    13
 -0.0004306843     2     5    11    12
 0.0698325432     2     5    12     2
 -0.0025107119     2     5    12     4
 -0.0015104138     2     5    12    11
 -0.0332589887     2     5    13     1
 0.0025387425     2     5    13     3
 -0.0005162527     2     5    13     6
 -0.0008236864     2     5    13     9
 0.0127498585     2     6     1     2
 -0.0003340000     2     6     1     4
 -0.0000907789     2     6     1    11
 0.1108106388     2     6     3     2
 -0.0010346081     2     6     3     4
 -0.0011024157     2     6     3    11
 -0.1299146538     2     6     4     1
 0.0109787949     2     6     4     3
 -0.0013408720     2     6     4     9
 -0.0042780810     2     6     5     7
 0.0003716202     2     6     5    13
 -0.5640356583     2     6     6     2
 0.0162890837     2     6     6     4
 0.0038266576     2     6     6    11
 -0.0033391300     2     6     7     5
 -0.0007572222     2     6     7    12
 -0.0049022685     2     6     8    10
 0.0483145604     2     6     9     2
 -0.0026320574     2     6     9     4
 -0.0022015522     2     6     9    11
 -0.0021904808     2     6    10     8
 -0.0104933208     2     6    11     1
 0.0015788477     2     6    11     3
 -0.0018802266     2     6    11     9
 0.0008947813     2     6    12     7
 -0.0018087294     2     6    12    13
 0.0005162527     2     6    13     5
 -0.0014163035     2     6    13    12
 -0.0001997192     2     7     1     5
 0.0000892106     2     7     1    12
 -0.0023024536     2     7     3     5
 -0.0000967851     2     7     3    12
 0.0011140826     2     7     4    13
 0.1665035513     2     7     5     1
 -0.0132432704     2     7     5     3
 0.0042780810     2     7     5     6
 0.0000837708     2     7     5     9
 0.0009578426     2     7     6     5
 -0.0017519169     2     7     6    12
 -0.4495397387     2     7     7     2
 0.0094377649     2     7     7     4
 0.0019509897     2     7     7    11
 -0.0003617640     2     7     9     5
 -0.0012723648     2     7     9    12
 -0.0010497208     2     7    11    13
 -0.0276996064     2     7    12     1
 0.0032676036     2     7    12     3
 -0.0008947813     2     7    12     6
 -0.0019008287     2     7    12     9
 0.0561784400     2     7    13     2
 -0.0020212811     2     7    13     4
 -0.0017616306     2     7    13    11
 0.0002348399     2     8     1    10
 0.0026489161     2     8     3    10
 -0.0020321838     2     8     6    10
 -0.5355851384     2     8     8     2
 0.0117791596     2     8     8     4
 0.0038140153     2     8     8    11
 0.0002575688     2     8     9    10
 0.1124536701     2     8    10     1
 -0.0075974124     2     8    10     3
 0.0021904808     2     8    10     6
 0.0011176007     2     8    10     9
 -0.0025636840     2     9     1     2
 0.0000676888     2     9     1     4
 0.0000205384     2     9     1    11
 0.0342885562     2     9     3     2
 -0.0006295046     2     9     3     4
 -0.0000127005     2     9     3    11
 0.0423295053     2     9     4     1
 -0.0025705914     2     9     4     3
 0.0013408720     2     9     4     6
 -0.0000837708     2     9     5     7
 0.0002705401     2     9     5    13
 0.0483145604     2     9     6     2
 -0.0016451885     2     9     6     4
 -0.0003548731     2     9     6    11
 -0.0004863650     2     9     7     5
 0.0006839102     2     9     7    12
 -0.0009478015     2     9     8    10
 -0.2245382035     2     9     9     2
 0.0006550727     2     9     9     4
 0.0004352127     2     9     9    11
 -0.0011176007     2     9    10     8
 0.0373147848     2     9    11     1
 -0.0011505565     2     9    11     3
 0.0018802266     2     9    11     6
 0.0019008287     2     9    12     7
 -0.0004157459     2     9    12    13
 0.0008236864     2     9    13     5
 -0.0001321265     2     9    13    12
 -0.0000000001     2     9    13    13
 -0.0002348399     2    10     1     8
 -0.0026489161     2    10     3     8
 0.0020321838     2    10     6     8
 0.1122065221     2    10     8     1
 -0.0114426026     2    10     8     3
 0.0049022685     2    10     8     6
 0.0009478015     2    10     8     9
 -0.0002575688     2    10     9     8
 -0.4011075341     2    10    10     2
 0.0067232114     2    10    10     4
 0.0018821515     2    10    10    11
 -0.0013699363     2    11     1     1
 -0.0000261645     2    11     1     3
 0.0000907789     2    11     1     6
 -0.0000205384     2    11     1     9
 -0.0342619592     2    11     3     1
 -0.0013313444     2    11     3     3
 0.0011024157     2    11     3     6
 0.0000127005     2    11     3     9
 -0.0588149142     2    11     4     2
 0.0000048873     2    11     4     4
 -0.0025538540     2    11     5     5
 0.0011286529     2    11     5    12
 -0.0104046435     2    11     6     1
 0.0029381537     2    11     6     3
 -0.0038266576     2    11     6     6
 0.0003548731     2    11     6     9
 -0.0019509897     2    11     7     7
 0.0007391195     2    11     7    13
 -0.0038140153     2    11     8     8
 0.0372959420     2    11     9     1
 -0.0011360813     2    11     9     3
 0.0022015522     2    11     9     6
 -0.0004352127     2    11     9     9
 -0.0018821515     2    11    10    10
 -0.2053105263     2    11    11     2
 -0.0000361800     2    11    11     4
 0.0015104138     2    11    12     5
 -0.0007095528     2    11    12    12
 0.0017616306     2    11    13     7
 -0.0006637495     2    11    13    13
 -0.0000892106     2    12     1     7
 0.0000361408     2    12     1    13
 0.0000967851     2    12     3     7
 0.0001956036     2    12     3    13
 -0.0012240348     2    12     4     5
 0.0698325432     2    12     5     2
 -0.0040642484     2    12     5     4
 -0.0011286529     2    12     5    11
 0.0017519169     2    12     6     7
 -0.0003963627     2    12     6    13
 -0.0277821590     2    12     7     1
 0.0037324151     2    12     7     3
 0.0007572222     2    12     7     6
 -0.0006839102     2    12     7     9
 0.0012723648     2    12     9     7
 -0.0002837136     2    12     9    13
 0.0004306843     2    12    11     5
 -0.2205977369     2    12    12     2
 0.0014933425     2    12    12     4
 0.0007095528     2    12    12    11
 0.0372125926     2    12    13     1
 -0.0017695144     2    12    13     3
 0.0014163035     2    12    13     6
 0.0001321265     2    12    13     9
 0.0000771191     2    13     1     5
 -0.0000361408     2    13     1    12
 0.0013665516     2    13     3     5
 -0.0001956036     2    13     3    12
 -0.0011140826     2    13     4     7
 -0.0331764689     2    13     5     1
 0.0042796200     2    13     5     3
 -0.0003716202     2    13     5     6
 -0.0002705401     2    13     5     9
 0.0002910139     2    13     6     5
 0.0003963627     2    13     6    12
 0.0561784400     2    13     7     2
 -0.0034236096     2    13     7     4
 -0.0007391195     2    13     7    11
 0.0005729865     2    13     9     5
 0.0002837136     2    13     9    12
 0.0010497208     2    13    11     7
 0.0371787615     2    13    12     1
 -0.0019674779     2    13    12     3
 0.0018087294     2    13    12     6
 0.0004157459     2    13    12     9
 -0.1892708742     2    13    13     2
 0.0009355472     2    13    13     4
 0.0000000001     2    13    13     9
 0.0006637495     2    13    13    11
 -0.5961446240     3     1     1     3
 0.1106181832     3     1     1     6
 0.0343333024     3     1     1     9
 0.0041758249     3     1     2     2
 -0.1503444570     3     1     2     4
 -0.0342619592     3     1     2    11
 -0.0001135480     3     1     4     2
 -0.0052617526     3     1     4     4
 -0.0007864340     3     1     4    11
 -0.0117309308     3     1     5     5
 0.0030030592     3     1     5    12
 0.0091000755     3     1     6     3
 -0.0177819804     3     1     6     6
 0.0023417247     3     1     6     9
 -0.0087157484     3     1     7     7
 0.0020991473     3     1     7    13
 -0.0137238284     3     1     8     8
 -0.0026219845     3     1     9     3
 0.0049091198     3     1     9     6
 -0.0009082948     3     1     9     9
 -0.0067011255     3     1    10    10
 -0.0000261645     3     1    11     2
 -0.0011481979     3     1    11     4
 -0.0005604239     3     1    11    11
 0.0045854884     3     1    12     5
 -0.0016804990     3     1    12    12
 0.0028589644     3     1    13     7
 -0.0010652495     3     1    13    13
 -0.1502319327     3     2     1     4
 -0.0342467555     3     2     1    11
 -0.0041758249     3     2     2     1
 -0.5961641447     3     2     2     3
 0.1108106388     3     2     2     6
 0.0342885562     3     2     2     9
 0.0001135480     3     2     4     1
 0.0037748573     3     2     4     3
 -0.0120236392     3     2     4     6
 0.0016914494     3     2     4     9
 0.0109273865     3     2     5     7
 -0.0025387425     3     2     5    13
 -0.0109787949     3     2     6     4
 -0.0015788477     3     2     6    11
 0.0132432704     3     2     7     5
 -0.0032676036     3     2     7    12
 0.0075974124     3     2     8    10
 0.0025705914     3     2     9     4
 0.0011505565     3     2     9    11
 0.0114426026     3     2    10     8
 0.0000261645     3     2    11     1
 0.0013313444     3     2    11     3
 -0.0029381537     3     2    11     6
 0.0011360813     3     2    11     9
 -0.0037324151     3     2    12     7
 0.0017695144     3     2    12    13
 -0.0042796200     3     2    13     5
 0.0019674779     3     2    13    12
 0.5961446240     3     3     1     1
 -0.0091000755     3     3     1     6
 0.0026219845     3     3     1     9
 0.5961641447     3     3     2     2
 -0.0037748573     3     3     2     4
 -0.0013313444     3     3     2    11
 -0.0037748573     3     3     4     2
 0.3150482049     3     3     4     4
 0.0251210716     3     3     4    11
 0.3525875042     3     3     5     5
 -0.0382213750     3     3     5    12
 -0.0091000755     3     3     6     1
 0.3841211996     3     3     6     6
 -0.0289147586     3     3     6     9
 0.3529148655     3     3     7     7
 -0.0344665885     3     3     7    13
 0.3899746827     3     3     8     8
 0.0026219845     3     3     9     1
 -0.0289147586     3     3     9     6
 0.2099948190     3     3     9     9
 0.3293316497     3     3    10    10
 -0.0013313444     3     3    11     2
 0.0251210716     3     3    11     4
 0.1906220858     3     3    11    11
 -0.0382213750     3     3    12     5
 0.2051709789     3     3    12    12
 -0.0344665885     3     3    13     7
 0.1798679378     3     3    13    13
 0.1502319327     3     4     1     2
 0.0002188119     3     4     1    11
 0.1503444570     3     4     2     1
 0.0037748573     3     4     2     3
 -0.0010346081     3     4     2     6
 -0.0006295046     3     4     2     9
 0.0052617526     3     4     4     1
 -0.3150482049     3     4     4     3
 0.0891261969     3     4     4     6
 0.0019159200     3     4     4     9
 -0.0553918725     3     4     5     7
 0.0070102386     3     4     5    13
 0.0109787949     3     4     6     2
 -0.0093531253     3     4     6    11
 -0.0330757901     3     4     7     5
 -0.0029131143     3     4     7    12
 -0.0426950688     3     4     8    10
 -0.0025705914     3     4     9     2
 -0.0236501267     3     4     9    11
 -0.0288505676     3     4    10     8
 0.0011481979     3     4    11     1
 -0.0251210716     3     4    11     3
 0.0068998337     3     4    11     6
 -0.0240038962     3     4    11     9
 0.0029843310     3     4    12     7
 -0.0271186048     3     4    12    13
 0.0055165676     3     4    13     5
 -0.0259997318     3     4    13    12
 0.0000000001     3     4    13    13
 -0.0011858194     3     5     1    12
 -0.0023024536     3     5     2     7
 0.0013665516     3     5     2    13
 -0.0223027760     3     5     4     7
 0.0013965685     3     5     4    13
 0.0117309308     3     5     5     1
 -0.3525875042     3     5     5     3
 0.0557359788     3     5     5     6
 0.0201325408     3     5     5     9
 0.0078668758     3     5     6    12
 -0.0132432704     3     5     7     2
 0.0330757901     3     5     7     4
 0.0115973249     3     5     7    11
 0.0237707225     3     5     9    12
 0.0005102656     3     5    11     7
 0.0184167250     3     5    11    13
 -0.0045854884     3     5    12     1
 0.0382213750     3     5    12     3
 -0.0064183694     3     5    12     6
 0.0203622990     3     5    12     9
 0.0042796200     3     5    13     2
 -0.0055165676     3     5    13     4
 0.0161055961     3     5    13    11
 0.0000000001     3     5    13    13
 -0.1106181832     3     6     1     1
 0.0091000755     3     6     1     3
 -0.0023123995     3     6     1     9
 -0.1108106388     3     6     2     2
 0.0010346081     3     6     2     4
 0.0011024157     3     6     2    11
 0.0120236392     3     6     4     2
 -0.0891261969     3     6     4     4