&FCI NORB= 11,NELEC= 10,MS2=0,
 ORBSYM=1,1,1,1,1,1,1,1,1,1,1
 ISYM=1,
&END
 1.0013057843     1     1     2     2
 -0.0543470220     1     1     2     3
 0.0544938723     1     1     2     5
 -0.0777627866     1     1     2     6
 0.0914604057     1     1     2     7
 0.0151694642     1     1     2     8
 0.0605545212     1     1     2     9
 0.0370610303     1     1     2    10
 -0.0543470220     1     1     3     2
 0.9025822450     1     1     3     3
 -0.0693971018     1     1     3     5
 0.0646638210     1     1     3     6
 0.1116990476     1     1     3     7
 -0.0126183634     1     1     3     8
 -0.0110110950     1     1     3     9
 0.2175160639     1     1     3    10
 1.0099256494     1     1     4     4
 0.1880060406     1     1     4    11
 0.0544938723     1     1     5     2
 -0.0693971018     1     1     5     3
 0.7542879265     1     1     5     5
 0.2622916309     1     1     5     6
 0.0463844693     1     1     5     7
 -0.0599652223     1     1     5     8
 0.0408174011     1     1     5     9
 -0.0975655139     1     1     5    10
 -0.0777627866     1     1     6     2
 0.0646638210     1     1     6     3
 0.2622916309     1     1     6     5
 0.5029822164     1     1     6     6
 0.0293722171     1     1     6     7
 -0.1137260469     1     1     6     8
 0.0067363938     1     1     6     9
 -0.0336547600     1     1     6    10
 0.0914604057     1     1     7     2
 0.1116990476     1     1     7     3
 0.0463844693     1     1     7     5
 0.0293722171     1     1     7     6
 0.3121263358     1     1     7     7
 -0.0280286109     1     1     7     8
 0.0447569368     1     1     7     9
 0.1072240523     1     1     7    10
 0.0151694642     1     1     8     2
 -0.0126183634     1     1     8     3
 -0.0599652223     1     1     8     5
 -0.1137260469     1     1     8     6
 -0.0280286109     1     1     8     7
 0.2544763966     1     1     8     8
 -0.0096746963     1     1     8     9
 0.0120945248     1     1     8    10
 0.0605545212     1     1     9     2
 -0.0110110950     1     1     9     3
 0.0408174011     1     1     9     5
 0.0067363938     1     1     9     6
 0.0447569368     1     1     9     7
 -0.0096746963     1     1     9     8
 0.3473246020     1     1     9     9
 0.0236451269     1     1     9    10
 0.0370610303     1     1    10     2
 0.2175160639     1     1    10     3
 -0.0975655139     1     1    10     5
 -0.0336547600     1     1    10     6
 0.1072240523     1     1    10     7
 0.0120945248     1     1    10     8
 0.0236451269     1     1    10     9
 0.4998643773     1     1    10    10
 0.1880060406     1     1    11     4
 0.3859084099     1     1    11    11
 -1.0013057843     1     2     2     1
 -0.0062536925     1     2     2     3
 0.0008301419     1     2     2     5
 -0.0007633520     1     2     2     6
 -0.0018769675     1     2     2     7
 0.0002181105     1     2     2     8
 -0.0001164375     1     2     2     9
 -0.0047525067     1     2     2    10
 0.0543470220     1     2     3     1
 -0.0340438100     1     2     3     3
 0.0039250951     1     2     3     5
 -0.0032052324     1     2     3     6
 -0.0093812690     1     2     3     7
 0.0011053350     1     2     3     8
 -0.0015513860     1     2     3     9
 -0.0202434460     1     2     3    10
 -0.0431703547     1     2     4     4
 -0.0159204460     1     2     4    11
 -0.0544938723     1     2     5     1
 0.0033888596     1     2     5     3
 -0.0268586272     1     2     5     5
 -0.0169292000     1     2     5     6
 -0.0022607018     1     2     5     7
 0.0054191806     1     2     5     8
 -0.0026046733     1     2     5     9
 0.0079019591     1     2     5    10
 0.0777627866     1     2     6     1
 -0.0021781131     1     2     6     3
 -0.0144040420     1     2     6     5
 -0.0131652559     1     2     6     6
 -0.0030721544     1     2     6     7
 0.0042029399     1     2     6     8
 -0.0019127829     1     2     6     9
 0.0025934304     1     2     6    10
 -0.0914604057     1     2     7     1
 -0.0077900689     1     2     7     3
 -0.0016809875     1     2     7     5
 -0.0031798796     1     2     7     6
 -0.0030382797     1     2     7     7
 0.0010478753     1     2     7     8
 -0.0008230255     1     2     7     9
 -0.0051121193     1     2     7    10
 -0.0151694642     1     2     8     1
 0.0007149886     1     2     8     3
 0.0044072837     1     2     8     5
 0.0040099457     1     2     8     6
 0.0009643930     1     2     8     7
 -0.0014160369     1     2     8     8
 0.0006991144     1     2     8     9
 -0.0008358628     1     2     8    10
 -0.0605545212     1     2     9     1
 -0.0012120302     1     2     9     3
 -0.0018774561     1     2     9     5
 -0.0016595238     1     2     9     6
 -0.0007679218     1     2     9     7
 0.0006466545     1     2     9     8
 -0.0005322134     1     2     9     9
 0.0001572970     1     2     9    10
 -0.0370610303     1     2    10     1
 -0.0146886266     1     2    10     3
 0.0061387608     1     2    10     5
 0.0018687145     1     2    10     6
 -0.0042967469     1     2    10     7
 -0.0006414222     1     2    10     8
 0.0002917974     1     2    10     9
 -0.0124632693     1     2    10    10
 -0.0118249592     1     2    11     4
 -0.0060167924     1     2    11    11
 0.0543470220     1     3     2     1
 0.0062536925     1     3     2     2
 0.0005394864     1     3     2     5
 -0.0008543754     1     3     2     6
 -0.0008643305     1     3     2     7
 0.0003305398     1     3     2     8
 -0.0002280259     1     3     2     9
 -0.0041795504     1     3     2    10
 -0.9025822450     1     3     3     1
 0.0340438100     1     3     3     2
 0.0027285671     1     3     3     5
 -0.0035689053     1     3     3     6
 0.0047139102     1     3     3     7
 0.0009507166     1     3     3     8
 0.0004923234     1     3     3     9
 0.0014620293     1     3     3    10
 0.0117856253     1     3     4     4
 0.0047515682     1     3     4    11
 0.0693971018     1     3     5     1
 -0.0033888596     1     3     5     2
 0.0067358853     1     3     5     5
 0.0061111852     1     3     5     6
 0.0005615047     1     3     5     7
 -0.0025693009     1     3     5     8
 -0.0003474082     1     3     5     9
 -0.0016591350     1     3     5    10
 -0.0646638210     1     3     6     1
 0.0021781131     1     3     6     2
 0.0044012842     1     3     6     5
 0.0025553878     1     3     6     6
 0.0004265631     1     3     6     7
 -0.0011418350     1     3     6     8
 0.0005779454     1     3     6     9
 -0.0014679439     1     3     6    10
 -0.1116990476     1     3     7     1
 0.0077900689     1     3     7     2
 0.0015004798     1     3     7     5
 -0.0010412799     1     3     7     6
 0.0039343429     1     3     7     7
 0.0001897733     1     3     7     8
 0.0009108348     1     3     7     9
 0.0026859153     1     3     7    10
 0.0126183634     1     3     8     1
 -0.0007149886     1     3     8     2
 -0.0013789092     1     3     8     5
 -0.0006300966     1     3     8     6
 -0.0001609013     1     3     8     7
 -0.0004267414     1     3     8     8
 0.0004033903     1     3     8     9
 -0.0001788501     1     3     8    10
 0.0110110950     1     3     9     1
 0.0012120302     1     3     9     2
 0.0003090964     1     3     9     5
 0.0008420310     1     3     9     6
 0.0011702041     1     3     9     7
 0.0002466291     1     3     9     8
 0.0002467810     1     3     9     9
 0.0039228843     1     3     9    10
 -0.2175160639     1     3    10     1
 0.0146886266     1     3    10     2
 0.0002561696     1     3    10     5
 -0.0040141988     1     3    10     6
 0.0050953799     1     3    10     7
 0.0007117344     1     3    10     8
 0.0041134089     1     3    10     9
 0.0048953674     1     3    10    10
 0.0031777394     1     3    11     4
 0.0005335435     1     3    11    11
 -0.0030269516     1     4     2    11
 0.0014120723     1     4     3    11
 -1.0099256494     1     4     4     1
 0.0431703547     1     4     4     2
 -0.0117856253     1     4     4     3
 0.0049557725     1     4     4     5
 -0.0065236080     1     4     4     6
 0.0049808230     1     4     4     7
 0.0020217597     1     4     4     8
 0.0066847686     1     4     4     9
 0.0003091848     1     4     4    10
 0.0012390859     1     4     5    11
 -0.0003087513     1     4     6    11
 0.0010298372     1     4     7    11
 -0.0006730417     1     4     8    11
 -0.0003668407     1     4     9    11
 -0.0004961552     1     4    10    11
 -0.1880060406     1     4    11     1
 0.0118249592     1     4    11     2
 -0.0031777394     1     4    11     3
 0.0020141944     1     4    11     5
 -0.0035059463     1     4    11     6
 0.0026391143     1     4    11     7
 0.0003444363     1     4    11     8
 0.0020584419     1     4    11     9
 -0.0003675540     1     4    11    10
 -0.0544938723     1     5     2     1
 -0.0008301419     1     5     2     2
 -0.0005394864     1     5     2     3
 -0.0012469832     1     5     2     6
 -0.0004442387     1     5     2     7
 0.0006231920     1     5     2     8
 -0.0005462446     1     5     2     9
 0.0011573201     1     5     2    10
 0.0693971018     1     5     3     1
 -0.0039250951     1     5     3     2
 -0.0027285671     1     5     3     3
 0.0014523174     1     5     3     6
 -0.0010448959     1     5     3     7
 -0.0010922205     1     5     3     8
 -0.0006104400     1     5     3     9
 -0.0019658835     1     5     3    10
 -0.0049557725     1     5     4     4
 -0.0009901672     1     5     4    11
 -0.7542879265     1     5     5     1
 0.0268586272     1     5     5     2
 -0.0067358853     1     5     5     3
 -0.0031996111     1     5     5     6
 0.0034146037     1     5     5     7
 -0.0001120983     1     5     5     8
 0.0042948082     1     5     5     9
 0.0014150392     1     5     5    10
 -0.2622916309     1     5     6     1
 0.0144040420     1     5     6     2
 -0.0044012842     1     5     6     3
 -0.0059897022     1     5     6     6
 0.0012928072     1     5     6     7
 0.0014530808     1     5     6     8
 0.0023356231     1     5     6     9
 0.0009406013     1     5     6    10
 -0.0463844693     1     5     7     1
 0.0016809875     1     5     7     2
 -0.0015004798     1     5     7     3
 -0.0007715333     1     5     7     6
 -0.0002049750     1     5     7     7
 0.0002819688     1     5     7     8
 0.0004256132     1     5     7     9
 -0.0012216051     1     5     7    10
 0.0599652223     1     5     8     1
 -0.0044072837     1     5     8     2
 0.0013789092     1     5     8     3
 0.0023660207     1     5     8     6
 -0.0000489797     1     5     8     7
 -0.0021905741     1     5     8     8
 -0.0009346438     1     5     8     9
 0.0002059105     1     5     8    10
 -0.0408174011     1     5     9     1
 0.0018774561     1     5     9     2
 -0.0003090964     1     5     9     3
 -0.0006437843     1     5     9     6
 0.0005397119     1     5     9     7
 -0.0001191062     1     5     9     8
 -0.0008410178     1     5     9     9
 0.0006776865     1     5     9    10
 0.0975655139     1     5    10     1
 -0.0061387608     1     5    10     2
 -0.0002561696     1     5    10     3
 0.0016893234     1     5    10     6
 -0.0022853818     1     5    10     7
 -0.0001243432     1     5    10     8
 -0.0010725888     1     5    10     9
 -0.0013128870     1     5    10    10
 -0.0020141944     1     5    11     4
 -0.0030391801     1     5    11    11
 0.0777627866     1     6     2     1
 0.0007633520     1     6     2     2
 0.0008543754     1     6     2     3
 0.0012469832     1     6     2     5
 0.0001237506     1     6     2     7
 0.0001680933     1     6     2     8
 -0.0002334939     1     6     2     9
 0.0007251835     1     6     2    10
 -0.0646638210     1     6     3     1
 0.0032052324     1     6     3     2
 0.0035689053     1     6     3     3
 -0.0014523174     1     6     3     5
 0.0014733030     1     6     3     7
 -0.0005182003     1     6     3     8
 -0.0002607550     1     6     3     9
 0.0025122739     1     6     3    10
 0.0065236080     1     6     4     4
 0.0032160572     1     6     4    11
 -0.2622916309     1     6     5     1
 0.0169292000     1     6     5     2
 -0.0061111852     1     6     5     3
 0.0031996111     1     6     5     5
 0.0021179501     1     6     5     7
 -0.0009591954     1     6     5     8
 0.0030643508     1     6     5     9
 -0.0007780067     1     6     5    10
 -0.5029822164     1     6     6     1
 0.0131652559     1     6     6     2
 -0.0025553878     1     6     6     3
 0.0059897022     1     6     6     5
 0.0022148366     1     6     6     7
 -0.0003933363     1     6     6     8
 0.0025286173     1     6     6     9
 -0.0001706997     1     6     6    10
 -0.0293722171     1     6     7     1
 0.0031798796     1     6     7     2
 0.0010412799     1     6     7     3
 0.0007715333     1     6     7     5
 0.0013703255     1     6     7     7
 -0.0000072969     1     6     7     8
 0.0006865862     1     6     7     9
 0.0009283054     1     6     7    10
 0.1137260469     1     6     8     1
 -0.0040099457     1     6     8     2
 0.0006300966     1     6     8     3
 -0.0023660207     1     6     8     5
 -0.0005523722     1     6     8     7
 -0.0010821048     1     6     8     8
 -0.0008957399     1     6     8     9
 0.0003268642     1     6     8    10
 -0.0067363938     1     6     9     1
 0.0016595238     1     6     9     2
 -0.0008420310     1     6     9     3
 0.0006437843     1     6     9     5
 0.0004866624     1     6     9     7
 -0.0001514600     1     6     9     8
 -0.0004958920     1     6     9     9
 0.0006006001     1     6     9    10
 0.0336547600     1     6    10     1
 -0.0018687145     1     6    10     2
 0.0040141988     1     6    10     3
 -0.0016893234     1     6    10     5
 0.0004015796     1     6    10     7
 0.0001941984     1     6    10     8
 -0.0000614066     1     6    10     9
 0.0030431765     1     6    10    10
 0.0035059463     1     6    11     4
 -0.0001646483     1     6    11    11
 -0.0914604057     1     7     2     1
 0.0018769675     1     7     2     2
 0.0008643305     1     7     2     3
 0.0004442387     1     7     2     5
 -0.0001237506     1     7     2     6
 0.0000764378     1     7     2     8
 -0.0000449500     1     7     2     9
 -0.0008054478     1     7     2    10
 -0.1116990476     1     7     3     1
 0.0093812690     1     7     3     2
 -0.0047139102     1     7     3     3
 0.0010448959     1     7     3     5
 -0.0014733030     1     7     3     6
 0.0003550201     1     7     3     8
 -0.0002569605     1     7     3     9
 -0.0024390451     1     7     3    10
 -0.0049808230     1     7     4     4
 -0.0016088419     1     7     4    11
 -0.0463844693     1     7     5     1
 0.0022607018     1     7     5     2
 -0.0005615047     1     7     5     3
 -0.0034146037     1     7     5     5
 -0.0021179501     1     7     5     6
 0.0003502844     1     7     5     8
 -0.0000900984     1     7     5     9
 0.0010482602     1     7     5    10
 -0.0293722171     1     7     6     1
 0.0030721544     1     7     6     2
 -0.0004265631     1     7     6     3
 -0.0012928072     1     7     6     5
 -0.0022148366     1     7     6     6
 0.0005464871     1     7     6     8
 0.0002013566     1     7     6     9
 0.0005275936     1     7     6    10
 -0.3121263358     1     7     7     1
 0.0030382797     1     7     7     2
 -0.0039343429     1     7     7     3
 0.0002049750     1     7     7     5
 -0.0013703255     1     7     7     6
 0.0003990923     1     7     7     8
 0.0001248063     1     7     7     9
 -0.0015021796     1     7     7    10
 0.0280286109     1     7     8     1
 -0.0009643930     1     7     8     2
 0.0001609013     1     7     8     3
 0.0000489797     1     7     8     5
 0.0005523722     1     7     8     6
 -0.0005596834     1     7     8     8
 0.0000698669     1     7     8     9
 -0.0002066074     1     7     8    10
 -0.0447569368     1     7     9     1
 0.0007679218     1     7     9     2
 -0.0011702041     1     7     9     3
 -0.0005397119     1     7     9     5
 -0.0004866624     1     7     9     6
 0.0002848960     1     7     9     8
 -0.0001578905     1     7     9     9
 0.0008577757     1     7     9    10
 -0.1072240523     1     7    10     1
 0.0042967469     1     7    10     2
 -0.0050953799     1     7    10     3
 0.0022853818     1     7    10     5
 -0.0004015796     1     7    10     6
 -0.0000043560     1     7    10     8
 0.0012020311     1     7    10     9
 -0.0023682937     1     7    10    10
 -0.0026391143     1     7    11     4
 -0.0017017088     1     7    11    11
 -0.0151694642     1     8     2     1
 -0.0002181105     1     8     2     2
 -0.0003305398     1     8     2     3
 -0.0006231920     1     8     2     5
 -0.0001680933     1     8     2     6
 -0.0000764378     1     8     2     7
 0.0000525687     1     8     2     9
 -0.0001955308     1     8     2    10
 0.0126183634     1     8     3     1
 -0.0011053350     1     8     3     2
 -0.0009507166     1     8     3     3
 0.0010922205     1     8     3     5
 0.0005182003     1     8     3     6
 -0.0003550201     1     8     3     7
 0.0001462602     1     8     3     9
 -0.0008735540     1     8     3    10
 -0.0020217597     1     8     4     4
 -0.0010055157     1     8     4    11
 0.0599652223     1     8     5     1
 -0.0054191806     1     8     5     2
 0.0025693009     1     8     5     3
 0.0001120983     1     8     5     5
 0.0009591954     1     8     5     6
 -0.0003502844     1     8     5     7
 -0.0008481058     1     8     5     9
 0.0003445315     1     8     5    10
 0.1137260469     1     8     6     1
 -0.0042029399     1     8     6     2
 0.0011418350     1     8     6     3
 -0.0014530808     1     8     6     5
 0.0003933363     1     8     6     6
 -0.0005464871     1     8     6     7
 -0.0007438766     1     8     6     9
 0.0001329041     1     8     6    10
 0.0280286109     1     8     7     1
 -0.0010478753     1     8     7     2
 -0.0001897733     1     8     7     3
 -0.0002819688     1     8     7     5
 0.0000072969     1     8     7     6
 -0.0003990923     1     8     7     7
 -0.0002139298     1     8     7     9
 -0.0002022941     1     8     7    10
 -0.2544763966     1     8     8     1
 0.0014160369     1     8     8     2
 0.0004267414     1     8     8     3
 0.0021905741     1     8     8     5
 0.0010821048     1     8     8     6
 0.0005596834     1     8     8     7
 0.0004686893     1     8     8     9
 -0.0000571964     1     8     8    10
 0.0096746963     1     8     9     1
 -0.0006466545     1     8     9     2
 -0.0002466291     1     8     9     3
 0.0001191062     1     8     9     5
 0.0001514600     1     8     9     6
 -0.0002848960     1     8     9     7
 0.0001528354     1     8     9     9
 -0.0005900585     1     8     9    10
 -0.0120945248     1     8    10     1
 0.0006414222     1     8    10     2
 -0.0007117344     1     8    10     3
 0.0001243432     1     8    10     5
 -0.0001941984     1     8    10     6
 0.0000043560     1     8    10     7
 0.0000066775     1     8    10     9
 -0.0005126295     1     8    10    10
 -0.0003444363     1     8    11     4
 0.0003527403     1     8    11    11
 -0.0605545212     1     9     2     1
 0.0001164375     1     9     2     2
 0.0002280259     1     9     2     3
 0.0005462446     1     9     2     5
 0.0002334939     1     9     2     6
 0.0000449500     1     9     2     7
 -0.0000525687     1     9     2     8
 -0.0001487707     1     9     2    10
 0.0110110950     1     9     3     1
 0.0015513860     1     9     3     2
 -0.0004923234     1     9     3     3
 0.0006104400     1     9     3     5
 0.0002607550     1     9     3     6
 0.0002569605     1     9     3     7
 -0.0001462602     1     9     3     8
 -0.0002413702     1     9     3    10
 -0.0066847686     1     9     4     4
 -0.0024497522     1     9     4    11
 -0.0408174011     1     9     5     1
 0.0026046733     1     9     5     2
 0.0003474082     1     9     5     3
 -0.0042948082     1     9     5     5
 -0.0030643508     1     9     5     6
 0.0000900984     1     9     5     7
 0.0008481058     1     9     5     8
 0.0017206708     1     9     5    10
 -0.0067363938     1     9     6     1
 0.0019127829     1     9     6     2
 -0.0005779454     1     9     6     3
 -0.0023356231     1     9     6     5
 -0.0025286173     1     9     6     6
 -0.0002013566     1     9     6     7
 0.0007438766     1     9     6     8
 0.0006651486     1     9     6    10
 -0.0447569368     1     9     7     1
 0.0008230255     1     9     7     2
 -0.0009108348     1     9     7     3
 -0.0004256132     1     9     7     5
 -0.0006865862     1     9     7     6
 -0.0001248063     1     9     7     7
 0.0002139298     1     9     7     8
 -0.0003442372     1     9     7    10
 0.0096746963     1     9     8     1
 -0.0006991144     1     9     8     2
 -0.0004033903     1     9     8     3
 0.0009346438     1     9     8     5
 0.0008957399     1     9     8     6
 -0.0000698669     1     9     8     7
 -0.0004686893     1     9     8     8
 -0.0005968990     1     9     8    10
 -0.3473246020     1     9     9     1
 0.0005322134     1     9     9     2
 -0.0002467810     1     9     9     3
 0.0008410178     1     9     9     5
 0.0004958920     1     9     9     6
 0.0001578905     1     9     9     7
 -0.0001528354     1     9     9     8
 0.0000114615     1     9     9    10
 -0.0236451269     1     9    10     1
 -0.0002917974     1     9    10     2
 -0.0041134089     1     9    10     3
 0.0010725888     1     9    10     5
 0.0000614066     1     9    10     6
 -0.0012020311     1     9    10     7
 -0.0000066775     1     9    10     8
 -0.0027683343     1     9    10    10
 -0.0020584419     1     9    11     4
 -0.0011634539     1     9    11    11
 -0.0370610303     1    10     2     1
 0.0047525067     1    10     2     2
 0.0041795504     1    10     2     3
 -0.0011573201     1    10     2     5
 -0.0007251835     1    10     2     6
 0.0008054478     1    10     2     7
 0.0001955308     1    10     2     8
 0.0001487707     1    10     2     9
 -0.2175160639     1    10     3     1
 0.0202434460     1    10     3     2
 -0.0014620293     1    10     3     3
 0.0019658835     1    10     3     5
 -0.0025122739     1    10     3     6
 0.0024390451     1    10     3     7
 0.0008735540     1    10     3     8
 0.0002413702     1    10     3     9
 -0.0003091848     1    10     4     4
 -0.0000757427     1    10     4    11
 0.0975655139     1    10     5     1
 -0.0079019591     1    10     5     2
 0.0016591350     1    10     5     3
 -0.0014150392     1    10     5     5
 0.0007780067     1    10     5     6
 -0.0010482602     1    10     5     7
 -0.0003445315     1    10     5     8
 -0.0017206708     1    10     5     9
 0.0336547600     1    10     6     1
 -0.0025934304     1    10     6     2
 0.0014679439     1    10     6     3
 -0.0009406013     1    10     6     5
 0.0001706997     1    10     6     6
 -0.0005275936     1    10     6     7
 -0.0001329041     1    10     6     8
 -0.0006651486     1    10     6     9
 -0.1072240523     1    10     7     1
 0.0051121193     1    10     7     2
 -0.0026859153     1    10     7     3
 0.0012216051     1    10     7     5
 -0.0009283054     1    10     7     6
 0.0015021796     1    10     7     7
 0.0002022941     1    10     7     8
 0.0003442372     1    10     7     9
 -0.0120945248     1    10     8     1
 0.0008358628     1    10     8     2
 0.0001788501     1    10     8     3
 -0.0002059105     1    10     8     5
 -0.0003268642     1    10     8     6
 0.0002066074     1    10     8     7
 0.0000571964     1    10     8     8
 0.0005968990     1    10     8     9
 -0.0236451269     1    10     9     1
 -0.0001572970     1    10     9     2
 -0.0039228843     1    10     9     3
 -0.0006776865     1    10     9     5
 -0.0006006001     1    10     9     6
 -0.0008577757     1    10     9     7
 0.0005900585     1    10     9     8
 -0.0000114615     1    10     9     9
 -0.4998643773     1    10    10     1
 0.0124632693     1    10    10     2
 -0.0048953674     1    10    10     3
 0.0013128870     1    10    10     5
 -0.0030431765     1    10    10     6
 0.0023682937     1    10    10     7
 0.0005126295     1    10    10     8
 0.0027683343     1    10    10     9
 0.0003675540     1    10    11     4
 0.0000535152     1    10    11    11
 0.0030269516     1    11     2     4
 -0.0014120723     1    11     3     4
 -0.1880060406     1    11     4     1
 0.0159204460     1    11     4     2
 -0.0047515682     1    11     4     3
 0.0009901672     1    11     4     5
 -0.0032160572     1    11     4     6
 0.0016088419     1    11     4     7
 0.0010055157     1    11     4     8
 0.0024497522     1    11     4     9
 0.0000757427     1    11     4    10
 -0.0012390859     1    11     5     4
 0.0003087513     1    11     6     4
 -0.0010298372     1    11     7     4
 0.0006730417     1    11     8     4
 0.0003668407     1    11     9     4
 0.0004961552     1    11    10     4
 -0.3859084099     1    11    11     1
 0.0060167924     1    11    11     2
 -0.0005335435     1    11    11     3
 0.0030391801     1    11    11     5
 0.0001646483     1    11    11     6
 0.0017017088     1    11    11     7
 -0.0003527403     1    11    11     8
 0.0011634539     1    11    11     9
 -0.0000535152     1    11    11    10
 -1.0013057843     2     1     1     2
 0.0543470220     2     1     1     3
 -0.0544938723     2     1     1     5
 0.0777627866     2     1     1     6
 -0.0914604057     2     1     1     7
 -0.0151694642     2     1     1     8
 -0.0605545212     2     1     1     9
 -0.0370610303     2     1     1    10
 -0.0062536925     2     1     3     2
 -0.0340438100     2     1     3     3
 0.0033888596     2     1     3     5
 -0.0021781131     2     1     3     6
 -0.0077900689     2     1     3     7
 0.0007149886     2     1     3     8
 -0.0012120302     2     1     3     9
 -0.0146886266     2     1     3    10
 -0.0431703547     2     1     4     4
 -0.0118249592     2     1     4    11
 0.0008301419     2     1     5     2
 0.0039250951     2     1     5     3
 -0.0268586272     2     1     5     5
 -0.0144040420     2     1     5     6
 -0.0016809875     2     1     5     7
 0.0044072837     2     1     5     8
 -0.0018774561     2     1     5     9
 0.0061387608     2     1     5    10
 -0.0007633520     2     1     6     2
 -0.0032052324     2     1     6     3
 -0.0169292000     2     1     6     5
 -0.0131652559     2     1     6     6
 -0.0031798796     2     1     6     7
 0.0040099457     2     1     6     8
 -0.0016595238     2     1     6     9
 0.0018687145     2     1     6    10
 -0.0018769675     2     1     7     2
 -0.0093812690     2     1     7     3
 -0.0022607018     2     1     7     5
 -0.0030721544     2     1     7     6
 -0.0030382797     2     1     7     7
 0.0009643930     2     1     7     8
 -0.0007679218     2     1     7     9
 -0.0042967469     2     1     7    10
 0.0002181105     2     1     8     2
 0.0011053350     2     1     8     3
 0.0054191806     2     1     8     5
 0.0042029399     2     1     8     6
 0.0010478753     2     1     8     7
 -0.0014160369     2     1     8     8
 0.0006466545     2     1     8     9
 -0.0006414222     2     1     8    10
 -0.0001164375     2     1     9     2
 -0.0015513860     2     1     9     3
 -0.0026046733     2     1     9     5
 -0.0019127829     2     1     9     6
 -0.0008230255     2     1     9     7
 0.0006991144     2     1     9     8
 -0.0005322134     2     1     9     9
 0.0002917974     2     1     9    10
 -0.0047525067     2     1    10     2
 -0.0202434460     2     1    10     3
 0.0079019591     2     1    10     5
 0.0025934304     2     1    10     6
 -0.0051121193     2     1    10     7
 -0.0008358628     2     1    10     8
 0.0001572970     2     1    10     9
 -0.0124632693     2     1    10    10
 -0.0159204460     2     1    11     4
 -0.0060167924     2     1    11    11
 1.0013057843     2     2     1     1
 0.0062536925     2     2     1     3
 -0.0008301419     2     2     1     5
 0.0007633520     2     2     1     6
 0.0018769675     2     2     1     7
 -0.0002181105     2     2     1     8
 0.0001164375     2     2     1     9
 0.0047525067     2     2     1    10
 0.0062536925     2     2     3     1
 0.5347976837     2     2     3     3
 -0.0273343086     2     2     3     5
 0.0283617405     2     2     3     6
 0.0463419574     2     2     3     7
 -0.0024424218     2     2     3     8
 -0.0150245912     2     2     3     9
 0.0769012136     2     2     3    10
 0.5831853466     2     2     4     4
 0.0767412422     2     2     4    11
 -0.0008301419     2     2     5     1
 -0.0273343086     2     2     5     3
 0.4736709546     2     2     5     5
 0.1256802846     2     2     5     6
 0.0212783579     2     2     5     7
 -0.0203257466     2     2     5     8
 0.0148204612     2     2     5     9
 -0.0400283794     2     2     5    10
 0.0007633520     2     2     6     1
 0.0283617405     2     2     6     3
 0.1256802846     2     2     6     5
 0.3583067332     2     2     6     6
 0.0092017404     2     2     6     7
 -0.0704410281     2     2     6     8
 0.0010358422     2     2     6     9
 -0.0135261121     2     2     6    10
 0.0018769675     2     2     7     1
 0.0463419574     2     2     7     3
 0.0212783579     2     2     7     5
 0.0092017404     2     2     7     6
 0.2786589139     2     2     7     7
 -0.0199730506     2     2     7     8
 0.0268886652     2     2     7     9
 0.0670256653     2     2     7    10
 -0.0002181105     2     2     8     1
 -0.0024424218     2     2     8     3
 -0.0203257466     2     2     8     5