&FCI NORB= 11,NELEC= 10,MS2=0,
 ORBSYM=1,1,1,1,1,1,1,1,1,1,1
 ISYM=1,
&END
 1.0047504711     1     1     2     2
 -0.0612352320     1     1     2     3
 -0.0424587751     1     1     2     5
 -0.0581340763     1     1     2     6
 0.0996381236     1     1     2     7
 0.0075624618     1     1     2     8
 0.0584435345     1     1     2     9
 0.0400119970     1     1     2    11
 -0.0612352320     1     1     3     2
 0.9166237637     1     1     3     3
 0.0560039483     1     1     3     5
 0.0493541092     1     1     3     6
 0.1021725362     1     1     3     7
 0.0005848758     1     1     3     8
 -0.0147644189     1     1     3     9
 0.2245742166     1     1     3    11
 1.0136168249     1     1     4     4
 0.1665002040     1     1     4    10
 -0.0424587751     1     1     5     2
 0.0560039483     1     1     5     3
 0.7140116450     1     1     5     5
 -0.2944227233     1     1     5     6
 -0.0362995622     1     1     5     7
 0.0357714451     1     1     5     8
 -0.0357289430     1     1     5     9
 0.0653409755     1     1     5    11
 -0.0581340763     1     1     6     2
 0.0493541092     1     1     6     3
 -0.2944227233     1     1     6     5
 0.5231488842     1     1     6     6
 0.0196730875     1     1     6     7
 -0.0822939525     1     1     6     8
 0.0114208587     1     1     6     9
 -0.0168744944     1     1     6    11
 0.0996381236     1     1     7     2
 0.1021725362     1     1     7     3
 -0.0362995622     1     1     7     5
 0.0196730875     1     1     7     6
 0.3114797383     1     1     7     7
 -0.0149514903     1     1     7     8
 0.0423950946     1     1     7     9
 0.1135347486     1     1     7    11
 0.0075624618     1     1     8     2
 0.0005848758     1     1     8     3
 0.0357714451     1     1     8     5
 -0.0822939525     1     1     8     6
 -0.0149514903     1     1     8     7
 0.2195477704     1     1     8     8
 -0.0073582947     1     1     8     9
 0.0123262305     1     1     8    11
 0.0584435345     1     1     9     2
 -0.0147644189     1     1     9     3
 -0.0357289430     1     1     9     5
 0.0114208587     1     1     9     6
 0.0423950946     1     1     9     7
 -0.0073582947     1     1     9     8
 0.3342894391     1     1     9     9
 0.0288605116     1     1     9    11
 0.1665002040     1     1    10     4
 0.3484767537     1     1    10    10
 0.0400119970     1     1    11     2
 0.2245742166     1     1    11     3
 0.0653409755     1     1    11     5
 -0.0168744944     1     1    11     6
 0.1135347486     1     1    11     7
 0.0123262305     1     1    11     8
 0.0288605116     1     1    11     9
 0.4983457844     1     1    11    11
 -1.0047504711     1     2     2     1
 0.0065319550     1     2     2     3
 0.0002379111     1     2     2     5
 0.0008703481     1     2     2     6
 0.0018434332     1     2     2     7
 -0.0000455680     1     2     2     8
 0.0001011423     1     2     2     9
 0.0049502844     1     2     2    11
 0.0612352320     1     2     3     1
 0.0348819386     1     2     3     3
 0.0031110093     1     2     3     5
 0.0022660112     1     2     3     6
 0.0089670765     1     2     3     7
 -0.0000407041     1     2     3     8
 0.0012199954     1     2     3     9
 0.0210908234     1     2     3    11
 0.0435430495     1     2     4     4
 0.0141617181     1     2     4    10
 0.0424587751     1     2     5     1
 0.0026391215     1     2     5     3
 0.0255580387     1     2     5     5
 -0.0178428736     1     2     5     6
 -0.0016571605     1     2     5     7
 0.0034921286     1     2     5     8
 -0.0023800186     1     2     5     9
 0.0051210289     1     2     5    11
 0.0581340763     1     2     6     1
 0.0016002822     1     2     6     3
 -0.0154791081     1     2     6     5
 0.0149094722     1     2     6     6
 0.0023677373     1     2     6     7
 -0.0028914590     1     2     6     8
 0.0018626932     1     2     6     9
 -0.0016102094     1     2     6    11
 -0.0996381236     1     2     7     1
 0.0075558852     1     2     7     3
 -0.0012651553     1     2     7     5
 0.0024378426     1     2     7     6
 0.0026193542     1     2     7     7
 -0.0003830784     1     2     7     8
 0.0006249861     1     2     7     9
 0.0054490103     1     2     7    11
 -0.0075624618     1     2     8     1
 0.0000259993     1     2     8     3
 0.0028784058     1     2     8     5
 -0.0027388145     1     2     8     6
 -0.0003538683     1     2     8     7
 0.0006626019     1     2     8     8
 -0.0004266011     1     2     8     9
 0.0006085457     1     2     8    11
 -0.0584435345     1     2     9     1
 0.0009798046     1     2     9     3
 -0.0017736309     1     2     9     5
 0.0016203799     1     2     9     6
 0.0005882290     1     2     9     7
 -0.0003962663     1     2     9     8
 0.0004856373     1     2     9     9
 -0.0001029373     1     2     9    11
 0.0105293011     1     2    10     4
 0.0047966886     1     2    10    10
 -0.0400119970     1     2    11     1
 0.0153376744     1     2    11     3
 0.0040127335     1     2    11     5
 -0.0010741979     1     2    11     6
 0.0045405737     1     2    11     7
 0.0004947321     1     2    11     8
 -0.0002188595     1     2    11     9
 0.0123362377     1     2    11    11
 0.0612352320     1     3     2     1
 -0.0065319550     1     3     2     2
 0.0004759356     1     3     2     5
 0.0005736788     1     3     2     6
 0.0007008441     1     3     2     7
 -0.0000800062     1     3     2     8
 0.0001538790     1     3     2     9
 0.0043059250     1     3     2    11
 -0.9166237637     1     3     3     1
 -0.0348819386     1     3     3     2
 0.0016393269     1     3     3     5
 0.0030722950     1     3     3     6
 -0.0052924393     1     3     3     7
 -0.0006451379     1     3     3     8
 -0.0005857852     1     3     3     9
 -0.0018943570     1     3     3    11
 -0.0126345488     1     3     4     4
 -0.0044256441     1     3     4    10
 -0.0560039483     1     3     5     1
 -0.0026391215     1     3     5     2
 -0.0069692316     1     3     5     5
 0.0062392607     1     3     5     6
 0.0003054394     1     3     5     7
 -0.0016747325     1     3     5     8
 -0.0004413229     1     3     5     9
 -0.0011551397     1     3     5    11
 -0.0493541092     1     3     6     1
 -0.0016002822     1     3     6     2
 0.0048692629     1     3     6     5
 -0.0035799055     1     3     6     6
 -0.0004375362     1     3     6     7
 0.0009139005     1     3     6     8
 -0.0004421897     1     3     6     9
 0.0011066479     1     3     6    11
 -0.1021725362     1     3     7     1
 -0.0075558852     1     3     7     2
 0.0010727132     1     3     7     5
 0.0006728068     1     3     7     6
 -0.0040464164     1     3     7     7
 -0.0002142318     1     3     7     8
 -0.0007627386     1     3     7     9
 -0.0030285049     1     3     7    11
 -0.0005848758     1     3     8     1
 -0.0000259993     1     3     8     2
 -0.0009191015     1     3     8     5
 0.0005912170     1     3     8     6
 -0.0000847197     1     3     8     7
 0.0004215680     1     3     8     8
 -0.0004488593     1     3     8     9
 0.0001133562     1     3     8    11
 0.0147644189     1     3     9     1
 -0.0009798046     1     3     9     2
 0.0002594359     1     3     9     5
 -0.0008288397     1     3     9     6
 -0.0009451147     1     3     9     7
 -0.0003306078     1     3     9     8
 -0.0000741700     1     3     9     9
 -0.0039564300     1     3     9    11
 -0.0030609305     1     3    10     4
 -0.0004560772     1     3    10    10
 -0.2245742166     1     3    11     1
 -0.0153376744     1     3    11     2
 0.0002332474     1     3    11     5
 0.0031045951     1     3    11     6
 -0.0058256631     1     3    11     7
 -0.0003749621     1     3    11     8
 -0.0041952476     1     3    11     9
 -0.0054491502     1     3    11    11
 0.0026799727     1     4     2    10
 -0.0012017008     1     4     3    10
 -1.0136168249     1     4     4     1
 -0.0435430495     1     4     4     2
 0.0126345488     1     4     4     3
 0.0032937312     1     4     4     5
 0.0051644193     1     4     4     6
 -0.0056912384     1     4     4     7
 -0.0010597492     1     4     4     8
 -0.0064568407     1     4     4     9
 -0.0006690551     1     4     4    11
 0.0011477615     1     4     5    10
 0.0001345953     1     4     6    10
 -0.0010121248     1     4     7    10
 0.0004999642     1     4     8    10
 0.0002947235     1     4     9    10
 -0.1665002040     1     4    10     1
 -0.0105293011     1     4    10     2
 0.0030609305     1     4    10     3
 0.0013813339     1     4    10     5
 0.0024597648     1     4    10     6
 -0.0027232762     1     4    10     7
 0.0000203658     1     4    10     8
 -0.0017877925     1     4    10     9
 0.0004328847     1     4    10    11
 0.0006067174     1     4    11    10
 0.0424587751     1     5     2     1
 -0.0002379111     1     5     2     2
 -0.0004759356     1     5     2     3
 -0.0010690081     1     5     2     6
 -0.0002936202     1     5     2     7
 0.0003585867     1     5     2     8
 -0.0004435331     1     5     2     9
 0.0007020834     1     5     2    11
 -0.0560039483     1     5     3     1
 -0.0031110093     1     5     3     2
 -0.0016393269     1     5     3     3
 0.0010910095     1     5     3     6
 -0.0008501063     1     5     3     7
 -0.0006807992     1     5     3     8
 -0.0006478518     1     5     3     9
 -0.0014529302     1     5     3    11
 -0.0032937312     1     5     4     4
 -0.0004256458     1     5     4    10
 -0.7140116450     1     5     5     1
 -0.0255580387     1     5     5     2
 0.0069692316     1     5     5     3
 0.0018601505     1     5     5     6
 -0.0035659716     1     5     5     7
 0.0004592182     1     5     5     8
 -0.0039318931     1     5     5     9
 -0.0011109887     1     5     5    11
 0.2944227233     1     5     6     1
 0.0154791081     1     5     6     2
 -0.0048692629     1     5     6     3
 -0.0049930393     1     5     6     6
 0.0019433445     1     5     6     7
 0.0007870998     1     5     6     8
 0.0025284159     1     5     6     9
 0.0006315503     1     5     6    11
 0.0362995622     1     5     7     1
 0.0012651553     1     5     7     2
 -0.0010727132     1     5     7     3
 -0.0003770686     1     5     7     6
 0.0000174842     1     5     7     7
 0.0001707075     1     5     7     8
 0.0003657759     1     5     7     9
 -0.0008999794     1     5     7    11
 -0.0357714451     1     5     8     1
 -0.0028784058     1     5     8     2
 0.0009191015     1     5     8     3
 0.0014990853     1     5     8     6
 -0.0000780080     1     5     8     7
 -0.0016653915     1     5     8     8
 -0.0006169193     1     5     8     9
 0.0002413048     1     5     8    11
 0.0357289430     1     5     9     1
 0.0017736309     1     5     9     2
 -0.0002594359     1     5     9     3
 -0.0003675224     1     5     9     6
 0.0006277546     1     5     9     7
 -0.0001246540     1     5     9     8
 -0.0008208187     1     5     9     9
 0.0007913285     1     5     9    11
 -0.0013813339     1     5    10     4
 -0.0025346032     1     5    10    10
 -0.0653409755     1     5    11     1
 -0.0040127335     1     5    11     2
 -0.0002332474     1     5    11     3
 0.0008231475     1     5    11     6
 -0.0016764433     1     5    11     7
 0.0000470032     1     5    11     8
 -0.0005636009     1     5    11     9
 -0.0009307472     1     5    11    11
 0.0581340763     1     6     2     1
 -0.0008703481     1     6     2     2
 -0.0005736788     1     6     2     3
 0.0010690081     1     6     2     5
 -0.0000915531     1     6     2     7
 -0.0001219788     1     6     2     8
 0.0002251583     1     6     2     9
 -0.0005460166     1     6     2    11
 -0.0493541092     1     6     3     1
 -0.0022660112     1     6     3     2
 -0.0030722950     1     6     3     3
 -0.0010910095     1     6     3     5
 -0.0011186231     1     6     3     7
 0.0003229243     1     6     3     8
 0.0003913543     1     6     3     9
 -0.0019772257     1     6     3    11
 -0.0051644193     1     6     4     4
 -0.0023539274     1     6     4    10
 0.2944227233     1     6     5     1
 0.0178428736     1     6     5     2
 -0.0062392607     1     6     5     3
 -0.0018601505     1     6     5     5
 0.0023883427     1     6     5     7
 -0.0007557346     1     6     5     8
 0.0029987566     1     6     5     9
 -0.0002190618     1     6     5    11
 -0.5231488842     1     6     6     1
 -0.0149094722     1     6     6     2
 0.0035799055     1     6     6     3
 0.0049930393     1     6     6     5
 -0.0024418536     1     6     6     7
 0.0001640288     1     6     6     8
 -0.0026396118     1     6     6     9
 -0.0001980625     1     6     6    11
 -0.0196730875     1     6     7     1
 -0.0024378426     1     6     7     2
 -0.0006728068     1     6     7     3
 0.0003770686     1     6     7     5
 -0.0010796078     1     6     7     7
 -0.0001036986     1     6     7     8
 -0.0005067338     1     6     7     9
 -0.0007564585     1     6     7    11
 0.0822939525     1     6     8     1
 0.0027388145     1     6     8     2
 -0.0005912170     1     6     8     3
 -0.0014990853     1     6     8     5
 0.0002928801     1     6     8     7
 0.0010966810     1     6     8     8
 0.0005952528     1     6     8     9
 -0.0002369690     1     6     8    11
 -0.0114208587     1     6     9     1
 -0.0016203799     1     6     9     2
 0.0008288397     1     6     9     3
 0.0003675224     1     6     9     5
 -0.0004774995     1     6     9     7
 0.0001042672     1     6     9     8
 0.0005891156     1     6     9     9
 -0.0006510802     1     6     9    11
 -0.0024597648     1     6    10     4
 0.0006883848     1     6    10    10
 0.0168744944     1     6    11     1
 0.0010741979     1     6    11     2
 -0.0031045951     1     6    11     3
 -0.0008231475     1     6    11     5
 -0.0003802103     1     6    11     7
 -0.0001763604     1     6    11     8
 -0.0001196709     1     6    11     9
 -0.0023277879     1     6    11    11
 -0.0996381236     1     7     2     1
 -0.0018434332     1     7     2     2
 -0.0007008441     1     7     2     3
 0.0002936202     1     7     2     5
 0.0000915531     1     7     2     6
 -0.0000242923     1     7     2     8
 0.0000272609     1     7     2     9
 0.0008960506     1     7     2    11
 -0.1021725362     1     7     3     1
 -0.0089670765     1     7     3     2
 0.0052924393     1     7     3     3
 0.0008501063     1     7     3     5
 0.0011186231     1     7     3     6
 -0.0001351159     1     7     3     8
 0.0001838030     1     7     3     9
 0.0028167673     1     7     3    11
 0.0056912384     1     7     4     4
 0.0017127175     1     7     4    10
 0.0362995622     1     7     5     1
 0.0016571605     1     7     5     2
 -0.0003054394     1     7     5     3
 0.0035659716     1     7     5     5
 -0.0023883427     1     7     5     6
 0.0002644716     1     7     5     8
 -0.0002497415     1     7     5     9
 0.0007643672     1     7     5    11
 -0.0196730875     1     7     6     1
 -0.0023677373     1     7     6     2
 0.0004375362     1     7     6     3
 -0.0019433445     1     7     6     5
 0.0024418536     1     7     6     6
 -0.0003978669     1     7     6     8
 -0.0000304294     1     7     6     9
 -0.0003773378     1     7     6    11
 -0.3114797383     1     7     7     1
 -0.0026193542     1     7     7     2
 0.0040464164     1     7     7     3
 -0.0000174842     1     7     7     5
 0.0010796078     1     7     7     6
 -0.0001886554     1     7     7     8
 -0.0000781507     1     7     7     9
 0.0016649742     1     7     7    11
 0.0149514903     1     7     8     1
 0.0003538683     1     7     8     2
 0.0000847197     1     7     8     3
 0.0000780080     1     7     8     5
 -0.0002928801     1     7     8     6
 0.0003567782     1     7     8     8
 -0.0001111987     1     7     8     9
 0.0002020449     1     7     8    11
 -0.0423950946     1     7     9     1
 -0.0005882290     1     7     9     2
 0.0009451147     1     7     9     3
 -0.0006277546     1     7     9     5
 0.0004774995     1     7     9     6
 -0.0002118974     1     7     9     8
 0.0001696048     1     7     9     9
 -0.0008274232     1     7     9    11
 0.0027232762     1     7    10     4
 0.0014656767     1     7    10    10
 -0.1135347486     1     7    11     1
 -0.0045405737     1     7    11     2
 0.0058256631     1     7    11     3
 0.0016764433     1     7    11     5
 0.0003802103     1     7    11     6
 0.0000620323     1     7    11     8
 -0.0011861238     1     7    11     9
 0.0025709052     1     7    11    11
 -0.0075624618     1     8     2     1
 0.0000455680     1     8     2     2
 0.0000800062     1     8     2     3
 -0.0003585867     1     8     2     5
 0.0001219788     1     8     2     6
 0.0000242923     1     8     2     7
 -0.0000320026     1     8     2     9
 0.0001148362     1     8     2    11
 -0.0005848758     1     8     3     1
 0.0000407041     1     8     3     2
 0.0006451379     1     8     3     3
 0.0006807992     1     8     3     5
 -0.0003229243     1     8     3     6
 0.0001351159     1     8     3     7
 -0.0001122687     1     8     3     9
 0.0004809438     1     8     3    11
 0.0010597492     1     8     4     4
 0.0004720798     1     8     4    10
 -0.0357714451     1     8     5     1
 -0.0034921286     1     8     5     2
 0.0016747325     1     8     5     3
 -0.0004592182     1     8     5     5
 0.0007557346     1     8     5     6
 -0.0002644716     1     8     5     7
 -0.0005138259     1     8     5     9
 0.0002014672     1     8     5    11
 0.0822939525     1     8     6     1
 0.0028914590     1     8     6     2
 -0.0009139005     1     8     6     3
 -0.0007870998     1     8     6     5
 -0.0001640288     1     8     6     6
 0.0003978669     1     8     6     7
 0.0004904738     1     8     6     9
 -0.0000605648     1     8     6    11
 0.0149514903     1     8     7     1
 0.0003830784     1     8     7     2
 0.0002142318     1     8     7     3
 -0.0001707075     1     8     7     5
 0.0001036986     1     8     7     6
 0.0001886554     1     8     7     7
 0.0000998672     1     8     7     9
 0.0001398292     1     8     7    11
 -0.2195477704     1     8     8     1
 -0.0006626019     1     8     8     2
 -0.0004215680     1     8     8     3
 0.0016653915     1     8     8     5
 -0.0010966810     1     8     8     6
 -0.0003567782     1     8     8     7
 -0.0002805707     1     8     8     9
 -0.0000891220     1     8     8    11
 0.0073582947     1     8     9     1
 0.0003962663     1     8     9     2
 0.0003306078     1     8     9     3
 0.0001246540     1     8     9     5
 -0.0001042672     1     8     9     6
 0.0002118974     1     8     9     7
 -0.0001052460     1     8     9     9
 0.0004141587     1     8     9    11
 -0.0000203658     1     8    10     4
 -0.0002877600     1     8    10    10
 -0.0123262305     1     8    11     1
 -0.0004947321     1     8    11     2
 0.0003749621     1     8    11     3
 -0.0000470032     1     8    11     5
 0.0001763604     1     8    11     6
 -0.0000620323     1     8    11     7
 -0.0000294381     1     8    11     9
 0.0001907533     1     8    11    11
 -0.0584435345     1     9     2     1
 -0.0001011423     1     9     2     2
 -0.0001538790     1     9     2     3
 0.0004435331     1     9     2     5
 -0.0002251583     1     9     2     6
 -0.0000272609     1     9     2     7
 0.0000320026     1     9     2     8
 0.0001308551     1     9     2    11
 0.0147644189     1     9     3     1
 -0.0012199954     1     9     3     2
 0.0005857852     1     9     3     3
 0.0006478518     1     9     3     5
 -0.0003913543     1     9     3     6
 -0.0001838030     1     9     3     7
 0.0001122687     1     9     3     8
 0.0002822666     1     9     3    11
 0.0064568407     1     9     4     4
 0.0021087695     1     9     4    10
 0.0357289430     1     9     5     1
 0.0023800186     1     9     5     2
 0.0004413229     1     9     5     3
 0.0039318931     1     9     5     5
 -0.0029987566     1     9     5     6
 0.0002497415     1     9     5     7
 0.0005138259     1     9     5     8
 0.0013311782     1     9     5    11
 -0.0114208587     1     9     6     1
 -0.0018626932     1     9     6     2
 0.0004421897     1     9     6     3
 -0.0025284159     1     9     6     5
 0.0026396118     1     9     6     6
 0.0000304294     1     9     6     7
 -0.0004904738     1     9     6     8
 -0.0005345538     1     9     6    11
 -0.0423950946     1     9     7     1
 -0.0006249861     1     9     7     2
 0.0007627386     1     9     7     3
 -0.0003657759     1     9     7     5
 0.0005067338     1     9     7     6
 0.0000781507     1     9     7     7
 -0.0000998672     1     9     7     8
 0.0003589604     1     9     7    11
 0.0073582947     1     9     8     1
 0.0004266011     1     9     8     2
 0.0004488593     1     9     8     3
 0.0006169193     1     9     8     5
 -0.0005952528     1     9     8     6
 0.0001111987     1     9     8     7
 0.0002805707     1     9     8     8
 0.0004437154     1     9     8    11
 -0.3342894391     1     9     9     1
 -0.0004856373     1     9     9     2
 0.0000741700     1     9     9     3
 0.0008208187     1     9     9     5
 -0.0005891156     1     9     9     6
 -0.0001696048     1     9     9     7
 0.0001052460     1     9     9     8
 -0.0001361427     1     9     9    11
 0.0017877925     1     9    10     4
 0.0009127092     1     9    10    10
 -0.0288605116     1     9    11     1
 0.0002188595     1     9    11     2
 0.0041952476     1     9    11     3
 0.0005636009     1     9    11     5
 0.0001196709     1     9    11     6
 0.0011861238     1     9    11     7
 0.0000294381     1     9    11     8
 0.0027522807     1     9    11    11
 -0.0026799727     1    10     2     4
 0.0012017008     1    10     3     4
 -0.1665002040     1    10     4     1
 -0.0141617181     1    10     4     2
 0.0044256441     1    10     4     3
 0.0004256458     1    10     4     5
 0.0023539274     1    10     4     6
 -0.0017127175     1    10     4     7
 -0.0004720798     1    10     4     8
 -0.0021087695     1    10     4     9
 -0.0001242595     1    10     4    11
 -0.0011477615     1    10     5     4
 -0.0001345953     1    10     6     4
 0.0010121248     1    10     7     4
 -0.0004999642     1    10     8     4
 -0.0002947235     1    10     9     4
 -0.3484767537     1    10    10     1
 -0.0047966886     1    10    10     2
 0.0004560772     1    10    10     3
 0.0025346032     1    10    10     5
 -0.0006883848     1    10    10     6
 -0.0014656767     1    10    10     7
 0.0002877600     1    10    10     8
 -0.0009127092     1    10    10     9
 -0.0000868465     1    10    10    11
 -0.0006067174     1    10    11     4
 -0.0400119970     1    11     2     1
 -0.0049502844     1    11     2     2
 -0.0043059250     1    11     2     3
 -0.0007020834     1    11     2     5
 0.0005460166     1    11     2     6
 -0.0008960506     1    11     2     7
 -0.0001148362     1    11     2     8
 -0.0001308551     1    11     2     9
 -0.2245742166     1    11     3     1
 -0.0210908234     1    11     3     2
 0.0018943570     1    11     3     3
 0.0014529302     1    11     3     5
 0.0019772257     1    11     3     6
 -0.0028167673     1    11     3     7
 -0.0004809438     1    11     3     8
 -0.0002822666     1    11     3     9
 0.0006690551     1    11     4     4
 0.0001242595     1    11     4    10
 -0.0653409755     1    11     5     1
 -0.0051210289     1    11     5     2
 0.0011551397     1    11     5     3
 0.0011109887     1    11     5     5
 0.0002190618     1    11     5     6
 -0.0007643672     1    11     5     7
 -0.0002014672     1    11     5     8
 -0.0013311782     1    11     5     9
 0.0168744944     1    11     6     1
 0.0016102094     1    11     6     2
 -0.0011066479     1    11     6     3
 -0.0006315503     1    11     6     5
 0.0001980625     1    11     6     6
 0.0003773378     1    11     6     7
 0.0000605648     1    11     6     8
 0.0005345538     1    11     6     9
 -0.1135347486     1    11     7     1
 -0.0054490103     1    11     7     2
 0.0030285049     1    11     7     3
 0.0008999794     1    11     7     5
 0.0007564585     1    11     7     6
 -0.0016649742     1    11     7     7
 -0.0001398292     1    11     7     8
 -0.0003589604     1    11     7     9
 -0.0123262305     1    11     8     1
 -0.0006085457     1    11     8     2
 -0.0001133562     1    11     8     3
 -0.0002413048     1    11     8     5
 0.0002369690     1    11     8     6
 -0.0002020449     1    11     8     7
 0.0000891220     1    11     8     8
 -0.0004437154     1    11     8     9
 -0.0288605116     1    11     9     1
 0.0001029373     1    11     9     2
 0.0039564300     1    11     9     3
 -0.0007913285     1    11     9     5
 0.0006510802     1    11     9     6
 0.0008274232     1    11     9     7
 -0.0004141587     1    11     9     8
 0.0001361427     1    11     9     9
 -0.0004328847     1    11    10     4
 0.0000868465     1    11    10    10
 -0.4983457844     1    11    11     1
 -0.0123362377     1    11    11     2
 0.0054491502     1    11    11     3
 0.0009307472     1    11    11     5
 0.0023277879     1    11    11     6
 -0.0025709052     1    11    11     7
 -0.0001907533     1    11    11     8
 -0.0027522807     1    11    11     9
 -1.0047504711     2     1     1     2
 0.0612352320     2     1     1     3
 0.0424587751     2     1     1     5
 0.0581340763     2     1     1     6
 -0.0996381236     2     1     1     7
 -0.0075624618     2     1     1     8
 -0.0584435345     2     1     1     9
 -0.0400119970     2     1     1    11
 0.0065319550     2     1     3     2
 0.0348819386     2     1     3     3
 0.0026391215     2     1     3     5
 0.0016002822     2     1     3     6
 0.0075558852     2     1     3     7
 0.0000259993     2     1     3     8
 0.0009798046     2     1     3     9
 0.0153376744     2     1     3    11
 0.0435430495     2     1     4     4
 0.0105293011     2     1     4    10
 0.0002379111     2     1     5     2
 0.0031110093     2     1     5     3
 0.0255580387     2     1     5     5
 -0.0154791081     2     1     5     6
 -0.0012651553     2     1     5     7
 0.0028784058     2     1     5     8
 -0.0017736309     2     1     5     9
 0.0040127335     2     1     5    11
 0.0008703481     2     1     6     2
 0.0022660112     2     1     6     3
 -0.0178428736     2     1     6     5
 0.0149094722     2     1     6     6
 0.0024378426     2     1     6     7
 -0.0027388145     2     1     6     8
 0.0016203799     2     1     6     9
 -0.0010741979     2     1     6    11
 0.0018434332     2     1     7     2
 0.0089670765     2     1     7     3
 -0.0016571605     2     1     7     5
 0.0023677373     2     1     7     6
 0.0026193542     2     1     7     7
 -0.0003538683     2     1     7     8
 0.0005882290     2     1     7     9
 0.0045405737     2     1     7    11
 -0.0000455680     2     1     8     2
 -0.0000407041     2     1     8     3
 0.0034921286     2     1     8     5
 -0.0028914590     2     1     8     6
 -0.0003830784     2     1     8     7
 0.0006626019     2     1     8     8
 -0.0003962663     2     1     8     9
 0.0004947321     2     1     8    11
 0.0001011423     2     1     9     2
 0.0012199954     2     1     9     3
 -0.0023800186     2     1     9     5
 0.0018626932     2     1     9     6
 0.0006249861     2     1     9     7
 -0.0004266011     2     1     9     8
 0.0004856373     2     1     9     9
 -0.0002188595     2     1     9    11
 0.0141617181     2     1    10     4
 0.0047966886     2     1    10    10
 0.0049502844     2     1    11     2
 0.0210908234     2     1    11     3
 0.0051210289     2     1    11     5
 -0.0016102094     2     1    11     6
 0.0054490103     2     1    11     7
 0.0006085457     2     1    11     8
 -0.0001029373     2     1    11     9
 0.0123362377     2     1    11    11
 1.0047504711     2     2     1     1
 -0.0065319550     2     2     1     3
 -0.0002379111     2     2     1     5
 -0.0008703481     2     2     1     6
 -0.0018434332     2     2     1     7
 0.0000455680     2     2     1     8
 -0.0001011423     2     2     1     9
 -0.0049502844     2     2     1    11
 -0.0065319550     2     2     3     1
 0.5409190375     2     2     3     3
 0.0229936166     2     2     3     5
 0.0217502089     2     2     3     6
 0.0424669582     2     2     3     7
 0.0019270577     2     2     3     8
 -0.0160283390     2     2     3     9
 0.0791980716     2     2     3    11
 0.5858352529     2     2     4     4
 0.0683916781     2     2     4    10
 -0.0002379111     2     2     5     1
 0.0229936166     2     2     5     3
 0.4529797996     2     2     5     5
 -0.1451891838     2     2     5     6
 -0.0174159400     2     2     5     7
 0.0101413542     2     2     5     8
 -0.0128305612     2     2     5     9
 0.0281806569     2     2     5    11
 -0.0008703481     2     2     6     1
 0.0217502089     2     2     6     3
 -0.1451891838     2     2     6     5
 0.3650280728     2     2     6     6
 0.0050955539     2     2     6     7
 -0.0532721032     2     2     6     8
 0.0033125451     2     2     6     9
 -0.0046397216     2     2     6    11
 -0.0018434332     2     2     7     1
 0.0424669582     2     2     7     3
 -0.0174159400     2     2     7     5
 0.0050955539     2     2     7     6
 0.2798917462     2     2     7     7
 -0.0116661189     2     2     7     8
 0.0254865972     2     2     7     9
 0.0706941856     2     2     7    11
 0.0000455680     2     2     8     1
 0.0019270577     2     2     8     3
 0.0101413542     2     2     8     5