&FCI NORB= 14,NELEC= 10,MS2=0,
 ORBSYM=1,1,1,1,1,1,1,1,1,1,1,1,1,1
 ISYM=1,
&END
 1.0031810402     1     1     2     2
 -0.0549283655     1     1     2     3
 0.0537586274     1     1     2     5
 -0.0830654747     1     1     2     6
 0.0963431142     1     1     2     7
 0.0161470117     1     1     2     8
 0.0640165472     1     1     2     9
 0.0391564252     1     1     2    10
 0.0577614899     1     1     2    12
 -0.0914193410     1     1     2    14
 -0.0549283655     1     1     3     2
 0.9031513936     1     1     3     3
 -0.0728956363     1     1     3     5
 0.0670936769     1     1     3     6
 0.1199981284     1     1     3     7
 -0.0130593593     1     1     3     8
 -0.0087809400     1     1     3     9
 0.2326199741     1     1     3    10
 -0.0471661571     1     1     3    12
 -0.0617656102     1     1     3    14
 1.0168954987     1     1     4     4
 0.1994707750     1     1     4    11
 -0.2160589195     1     1     4    13
 0.0537586274     1     1     5     2
 -0.0728956363     1     1     5     3
 0.7481737359     1     1     5     5
 0.2765638509     1     1     5     6
 0.0466686171     1     1     5     7
 -0.0625906447     1     1     5     8
 0.0421892117     1     1     5     9
 -0.1042973748     1     1     5    10
 -0.0637215682     1     1     5    12
 -0.1904997927     1     1     5    14
 -0.0830654747     1     1     6     2
 0.0670936769     1     1     6     3
 0.2765638509     1     1     6     5
 0.5012533571     1     1     6     6
 0.0292581521     1     1     6     7
 -0.1132721750     1     1     6     8
 0.0067149473     1     1     6     9
 -0.0335175210     1     1     6    10
 -0.0933194130     1     1     6    12
 -0.1421978641     1     1     6    14
 0.0963431142     1     1     7     2
 0.1199981284     1     1     7     3
 0.0466686171     1     1     7     5
 0.0292581521     1     1     7     6
 0.3116065162     1     1     7     7
 -0.0279664002     1     1     7     8
 0.0445560204     1     1     7     9
 0.1068233252     1     1     7    10
 -0.0001387654     1     1     7    12
 -0.1076129985     1     1     7    14
 0.0161470117     1     1     8     2
 -0.0130593593     1     1     8     3
 -0.0625906447     1     1     8     5
 -0.1132721750     1     1     8     6
 -0.0279664002     1     1     8     7
 0.2542047398     1     1     8     8
 -0.0096442763     1     1     8     9
 0.0121349673     1     1     8    10
 0.0103436188     1     1     8    12
 0.0306239870     1     1     8    14
 0.0640165472     1     1     9     2
 -0.0087809400     1     1     9     3
 0.0421892117     1     1     9     5
 0.0067149473     1     1     9     6
 0.0445560204     1     1     9     7
 -0.0096442763     1     1     9     8
 0.3466195892     1     1     9     9
 0.0235126959     1     1     9    10
 0.0163338688     1     1     9    12
 -0.0525463272     1     1     9    14
 0.0391564252     1     1    10     2
 0.2326199741     1     1    10     3
 -0.1042973748     1     1    10     5
 -0.0335175210     1     1    10     6
 0.1068233252     1     1    10     7
 0.0121349673     1     1    10     8
 0.0235126959     1     1    10     9
 0.4990617477     1     1    10    10
 0.0109574114     1     1    10    12
 0.0023289514     1     1    10    14
 0.1994707750     1     1    11     4
 0.3849764607     1     1    11    11
 -0.1140410156     1     1    11    13
 0.0577614899     1     1    12     2
 -0.0471661571     1     1    12     3
 -0.0637215682     1     1    12     5
 -0.0933194130     1     1    12     6
 -0.0001387654     1     1    12     7
 0.0103436188     1     1    12     8
 0.0163338688     1     1    12     9
 0.0109574114     1     1    12    10
 0.3514019936     1     1    12    12
 0.0532899893     1     1    12    14
 -0.2160589195     1     1    13     4
 -0.1140410156     1     1    13    11
 0.4435716886     1     1    13    13
 -0.0914193410     1     1    14     2
 -0.0617656102     1     1    14     3
 -0.1904997927     1     1    14     5
 -0.1421978641     1     1    14     6
 -0.1076129985     1     1    14     7
 0.0306239870     1     1    14     8
 -0.0525463272     1     1    14     9
 0.0023289514     1     1    14    10
 0.0532899893     1     1    14    12
 0.4967187267     1     1    14    14
 -1.0031810402     1     2     2     1
 -0.0062107191     1     2     2     3
 0.0008114603     1     2     2     5
 -0.0006380538     1     2     2     6
 -0.0019806181     1     2     2     7
 0.0001970607     1     2     2     8
 -0.0001917882     1     2     2     9
 -0.0048010842     1     2     2    10
 0.0006179669     1     2     2    12
 0.0015296027     1     2     2    14
 0.0549283655     1     2     3     1
 -0.0339115593     1     2     3     3
 0.0042620384     1     2     3     5
 -0.0031827854     1     2     3     6
 -0.0096963888     1     2     3     7
 0.0010852924     1     2     3     8
 -0.0016786256     1     2     3     9
 -0.0208528437     1     2     3    10
 0.0025621794     1     2     3    12
 0.0070425412     1     2     3    14
 -0.0436015342     1     2     4     4
 -0.0163463393     1     2     4    11
 0.0190884674     1     2     4    13
 -0.0537586274     1     2     5     1
 0.0036962194     1     2     5     3
 -0.0261287771     1     2     5     5
 -0.0171456481     1     2     5     6
 -0.0022018818     1     2     5     7
 0.0054057440     1     2     5     8
 -0.0026392263     1     2     5     9
 0.0081993102     1     2     5    10
 0.0064638174     1     2     5    12
 0.0151564759     1     2     5    14
 0.0830654747     1     2     6     1
 -0.0022159120     1     2     6     3
 -0.0149910241     1     2     6     5
 -0.0133429696     1     2     6     6
 -0.0031462269     1     2     6     7
 0.0042572466     1     2     6     8
 -0.0019642869     1     2     6     9
 0.0026219707     1     2     6    10
 0.0051439708     1     2     6    12
 0.0120796889     1     2     6    14
 -0.0963431142     1     2     7     1
 -0.0083297891     1     2     7     3
 -0.0016894432     1     2     7     5
 -0.0032622893     1     2     7     6
 -0.0030631457     1     2     7     7
 0.0010696746     1     2     7     8
 -0.0008162628     1     2     7     9
 -0.0051717995     1     2     7    10
 0.0015081132     1     2     7    12
 0.0042128585     1     2     7    14
 -0.0161470117     1     2     8     1
 0.0007144643     1     2     8     3
 0.0044912001     1     2     8     5
 0.0040654583     1     2     8     6
 0.0009834662     1     2     8     7
 -0.0014315462     1     2     8     8
 0.0007122717     1     2     8     9
 -0.0008498346     1     2     8    10
 -0.0015656886     1     2     8    12
 -0.0037357289     1     2     8    14
 -0.0640165472     1     2     9     1
 -0.0014138968     1     2     9     3
 -0.0019665673     1     2     9     5
 -0.0017061222     1     2     9     6
 -0.0007666990     1     2     9     7
 0.0006582488     1     2     9     8
 -0.0004938351     1     2     9     9
 0.0001684018     1     2     9    10
 0.0005509943     1     2     9    12
 0.0017001204     1     2     9    14
 -0.0391564252     1     2    10     1
 -0.0156428590     1     2    10     3
 0.0065777504     1     2    10     5
 0.0018876850     1     2    10     6
 -0.0043485513     1     2    10     7
 -0.0006516353     1     2    10     8
 0.0003169284     1     2    10     9
 -0.0126326995     1     2    10    10
 0.0003853863     1     2    10    12
 0.0001661730     1     2    10    14
 -0.0124915995     1     2    11     4
 -0.0060978035     1     2    11    11
 0.0067200277     1     2    11    13
 -0.0577614899     1     2    12     1
 0.0016425755     1     2    12     3
 0.0046959175     1     2    12     5
 0.0043811542     1     2    12     6
 0.0011959021     1     2    12     7
 -0.0013902870     1     2    12     8
 0.0005128130     1     2    12     9
 0.0002173087     1     2    12    10
 -0.0018018585     1     2    12    12
 -0.0037918667     1     2    12    14
 0.0139666133     1     2    13     4
 0.0064114008     1     2    13    11
 -0.0071870457     1     2    13    13
 0.0914193410     1     2    14     1
 0.0056177343     1     2    14     3
 0.0110919579     1     2    14     5
 0.0105785330     1     2    14     6
 0.0038318298     1     2    14     7
 -0.0034224181     1     2    14     8
 0.0016746550     1     2    14     9
 0.0006492450     1     2    14    10
 -0.0040155953     1     2    14    12
 -0.0103900637     1     2    14    14
 0.0549283655     1     3     2     1
 0.0062107191     1     3     2     2
 0.0005651150     1     3     2     5
 -0.0008639395     1     3     2     6
 -0.0007813489     1     3     2     7
 0.0003282732     1     3     2     8
 -0.0001884799     1     3     2     9
 -0.0041126251     1     3     2    10
 0.0007944814     1     3     2    12
 0.0010132464     1     3     2    14
 -0.9031513936     1     3     3     1
 0.0339115593     1     3     3     2
 0.0026095863     1     3     3     5
 -0.0036385260     1     3     3     6
 0.0048413708     1     3     3     7
 0.0009769589     1     3     3     8
 0.0004970663     1     3     3     9
 0.0016335164     1     3     3    10
 0.0018226766     1     3     3    12
 -0.0055347163     1     3     3    14
 0.0118885485     1     3     4     4
 0.0049086935     1     3     4    11
 -0.0030776438     1     3     4    13
 0.0728956363     1     3     5     1
 -0.0036962194     1     3     5     2
 0.0065274278     1     3     5     5
 0.0062521793     1     3     5     6
 0.0005077928     1     3     5     7
 -0.0026041145     1     3     5     8
 -0.0004309967     1     3     5     9
 -0.0017104185     1     3     5    10
 -0.0002202110     1     3     5    12
 -0.0035454578     1     3     5    14
 -0.0670936769     1     3     6     1
 0.0022159120     1     3     6     2
 0.0045121446     1     3     6     5
 0.0026308977     1     3     6     6
 0.0004496494     1     3     6     7
 -0.0011663363     1     3     6     8
 0.0005891783     1     3     6     9
 -0.0014875772     1     3     6    10
 0.0000599775     1     3     6    12
 -0.0025712715     1     3     6    14
 -0.1199981284     1     3     7     1
 0.0083297891     1     3     7     2
 0.0015086647     1     3     7     5
 -0.0010815793     1     3     7     6
 0.0040137791     1     3     7     7
 0.0001961611     1     3     7     8
 0.0009546884     1     3     7     9
 0.0027268459     1     3     7    10
 0.0002500346     1     3     7    12
 -0.0028122724     1     3     7    14
 0.0130593593     1     3     8     1
 -0.0007144643     1     3     8     2
 -0.0014056865     1     3     8     5
 -0.0006516579     1     3     8     6
 -0.0001674217     1     3     8     7
 -0.0004186018     1     3     8     8
 0.0004069679     1     3     8     9
 -0.0001768101     1     3     8    10
 -0.0001497828     1     3     8    12
 0.0004775905     1     3     8    14
 0.0087809400     1     3     9     1
 0.0014138968     1     3     9     2
 0.0003129538     1     3     9     5
 0.0008453334     1     3     9     6
 0.0011983443     1     3     9     7
 0.0002497746     1     3     9     8
 0.0002587822     1     3     9     9
 0.0039532076     1     3     9    10
 -0.0007367667     1     3     9    12
 -0.0027713132     1     3     9    14
 -0.2326199741     1     3    10     1
 0.0156428590     1     3    10     2
 0.0001567640     1     3    10     5
 -0.0041505602     1     3    10     6
 0.0052237997     1     3    10     7
 0.0007383079     1     3    10     8
 0.0042164748     1     3    10     9
 0.0049755603     1     3    10    10
 0.0034282512     1     3    10    12
 -0.0040593752     1     3    10    14
 0.0033177792     1     3    11     4
 0.0005601279     1     3    11    11
 -0.0017165207     1     3    11    13
 0.0471661571     1     3    12     1
 -0.0016425755     1     3    12     2
 -0.0013220011     1     3    12     5
 -0.0010183883     1     3    12     6
 -0.0008585757     1     3    12     7
 0.0003908227     1     3    12     8
 -0.0008631608     1     3    12     9
 0.0025180199     1     3    12    10
 0.0002803669     1     3    12    12
 0.0026315990     1     3    12    14
 -0.0041085196     1     3    13     4
 -0.0028642021     1     3    13    11
 0.0043757901     1     3    13    13
 0.0617656102     1     3    14     1
 -0.0056177343     1     3    14     2
 -0.0038505931     1     3    14     5
 -0.0015604020     1     3    14     6
 -0.0023327530     1     3    14     7
 0.0006103038     1     3    14     8
 -0.0021849260     1     3    14     9
 -0.0010924214     1     3    14    10
 0.0008647966     1     3    14    12
 0.0048911048     1     3    14    14
 -0.0029547105     1     4     2    11
 0.0041384875     1     4     2    13
 0.0014129284     1     4     3    11
 0.0012968972     1     4     3    13
 -1.0168954987     1     4     4     1
 0.0436015342     1     4     4     2
 -0.0118885485     1     4     4     3
 0.0049413015     1     4     4     5
 -0.0066670675     1     4     4     6
 0.0051141006     1     4     4     7
 0.0020719218     1     4     4     8
 0.0068394686     1     4     4     9
 0.0003635706     1     4     4    10
 0.0064964157     1     4     4    12
 -0.0073817386     1     4     4    14
 0.0013271613     1     4     5    11
 0.0010317511     1     4     5    13
 -0.0002938543     1     4     6    11
 0.0007609997     1     4     6    13
 0.0010197842     1     4     7    11
 -0.0013091190     1     4     7    13
 -0.0006881523     1     4     8    11
 0.0003023020     1     4     8    13
 -0.0003873949     1     4     9    11
 0.0007418574     1     4     9    13
 -0.0005067405     1     4    10    11
 0.0006982723     1     4    10    13
 -0.1994707750     1     4    11     1
 0.0124915995     1     4    11     2
 -0.0033177792     1     4    11     3
 0.0020428065     1     4    11     5
 -0.0036065379     1     4    11     6
 0.0027120976     1     4    11     7
 0.0003572613     1     4    11     8
 0.0021193479     1     4    11     9
 -0.0003529622     1     4    11    10
 0.0025090177     1     4    11    12
 -0.0021913005     1     4    11    14
 -0.0002819142     1     4    12    11
 0.0003760837     1     4    12    13
 0.2160589195     1     4    13     1
 -0.0139666133     1     4    13     2
 0.0041085196     1     4    13     3
 -0.0015107032     1     4    13     5
 0.0029856804     1     4    13     6
 -0.0043194759     1     4    13     7
 -0.0003867001     1     4    13     8
 -0.0024434867     1     4    13     9
 -0.0006647972     1     4    13    10
 -0.0021351600     1     4    13    12
 0.0044346366     1     4    13    14
 -0.0001106936     1     4    14    11
 0.0002204538     1     4    14    13
 -0.0537586274     1     5     2     1
 -0.0008114603     1     5     2     2
 -0.0005651150     1     5     2     3
 -0.0011445996     1     5     2     6
 -0.0004100301     1     5     2     7
 0.0005927009     1     5     2     8
 -0.0005293246     1     5     2     9
 0.0011524383     1     5     2    10
 0.0014304461     1     5     2    12
 0.0032727112     1     5     2    14
 0.0728956363     1     5     3     1
 -0.0042620384     1     5     3     2
 -0.0026095863     1     5     3     3
 0.0014963458     1     5     3     6
 -0.0010953879     1     5     3     7
 -0.0011134093     1     5     3     8
 -0.0006750540     1     5     3     9
 -0.0019172639     1     5     3    10
 0.0011407703     1     5     3    12
 0.0005561852     1     5     3    14
 -0.0049413015     1     5     4     4
 -0.0009230222     1     5     4    11
 0.0026448444     1     5     4    13
 -0.7481737359     1     5     5     1
 0.0261287771     1     5     5     2
 -0.0065274278     1     5     5     3
 -0.0030449743     1     5     5     6
 0.0033732694     1     5     5     7
 -0.0001774589     1     5     5     8
 0.0042825378     1     5     5     9
 0.0014320844     1     5     5    10
 0.0024129272     1     5     5    12
 -0.0022237687     1     5     5    14
 -0.2765638509     1     5     6     1
 0.0149910241     1     5     6     2
 -0.0045121446     1     5     6     3
 -0.0060494984     1     5     6     6
 0.0013519933     1     5     6     7
 0.0014663408     1     5     6     8
 0.0023936542     1     5     6     9
 0.0009482820     1     5     6    10
 0.0031220251     1     5     6    12
 0.0005606958     1     5     6    14
 -0.0466686171     1     5     7     1
 0.0016894432     1     5     7     2
 -0.0015086647     1     5     7     3
 -0.0007721559     1     5     7     6
 -0.0002135275     1     5     7     7
 0.0002829565     1     5     7     8
 0.0004327058     1     5     7     9
 -0.0012130972     1     5     7    10
 0.0003004358     1     5     7    12
 -0.0004991276     1     5     7    14
 0.0625906447     1     5     8     1
 -0.0044912001     1     5     8     2
 0.0014056865     1     5     8     3
 0.0023865077     1     5     8     6
 -0.0000541316     1     5     8     7
 -0.0021897159     1     5     8     8
 -0.0009487175     1     5     8     9
 0.0002144445     1     5     8    10
 -0.0014823273     1     5     8    12
 -0.0004758825     1     5     8    14
 -0.0421892117     1     5     9     1
 0.0019665673     1     5     9     2
 -0.0003129538     1     5     9     3
 -0.0006766407     1     5     9     6
 0.0005541227     1     5     9     7
 -0.0001133914     1     5     9     8
 -0.0008268611     1     5     9     9
 0.0006889199     1     5     9    10
 0.0017157971     1     5     9    12
 0.0000653022     1     5     9    14
 0.1042973748     1     5    10     1
 -0.0065777504     1     5    10     2
 -0.0001567640     1     5    10     3
 0.0017181594     1     5    10     6
 -0.0023291171     1     5    10     7
 -0.0001260589     1     5    10     8
 -0.0011185462     1     5    10     9
 -0.0012919119     1     5    10    10
 -0.0012247659     1     5    10    12
 0.0027565807     1     5    10    14
 -0.0020428065     1     5    11     4
 -0.0030345144     1     5    11    11
 0.0005295694     1     5    11    13
 0.0637215682     1     5    12     1
 -0.0046959175     1     5    12     2
 0.0013220011     1     5    12     3
 0.0018785907     1     5    12     6
 -0.0013329246     1     5    12     7
 -0.0007131115     1     5    12     8
 0.0003756136     1     5    12     9
 -0.0019200083     1     5    12    10
 -0.0015203967     1     5    12    12
 0.0005446226     1     5    12    14
 0.0015107032     1     5    13     4
 -0.0004492871     1     5    13    11
 -0.0010658436     1     5    13    13
 0.1904997927     1     5    14     1
 -0.0110919579     1     5    14     2
 0.0038505931     1     5    14     3
 0.0034602211     1     5    14     6
 -0.0024164591     1     5    14     7
 -0.0004985387     1     5    14     8
 -0.0021353237     1     5    14     9
 0.0010499671     1     5    14    10
 -0.0019562745     1     5    14    12
 0.0031222627     1     5    14    14
 0.0830654747     1     6     2     1
 0.0006380538     1     6     2     2
 0.0008639395     1     6     2     3
 0.0011445996     1     6     2     5
 0.0001312702     1     6     2     7
 0.0001751070     1     6     2     8
 -0.0002421576     1     6     2     9
 0.0007514481     1     6     2    10
 0.0007453876     1     6     2    12
 0.0014191416     1     6     2    14
 -0.0670936769     1     6     3     1
 0.0031827854     1     6     3     2
 0.0036385260     1     6     3     3
 -0.0014963458     1     6     3     5
 0.0015605918     1     6     3     7
 -0.0005181100     1     6     3     8
 -0.0002597890     1     6     3     9
 0.0027258179     1     6     3    10
 0.0011005979     1     6     3    12
 -0.0010074593     1     6     3    14
 0.0066670675     1     6     4     4
 0.0033538438     1     6     4    11
 -0.0022286974     1     6     4    13
 -0.2765638509     1     6     5     1
 0.0171456481     1     6     5     2
 -0.0062521793     1     6     5     3
 0.0030449743     1     6     5     5
 0.0021418945     1     6     5     7
 -0.0009537334     1     6     5     8
 0.0031017198     1     6     5     9
 -0.0007957934     1     6     5    10
 0.0012782189     1     6     5    12
 -0.0029115436     1     6     5    14
 -0.5012533571     1     6     6     1
 0.0133429696     1     6     6     2
 -0.0026308977     1     6     6     3
 0.0060494984     1     6     6     5
 0.0022293146     1     6     6     7
 -0.0003900496     1     6     6     8
 0.0025336653     1     6     6     9
 -0.0001623762     1     6     6    10
 0.0008259461     1     6     6    12
 -0.0039301962     1     6     6    14
 -0.0292581521     1     6     7     1
 0.0032622893     1     6     7     2
 0.0010815793     1     6     7     3
 0.0007721559     1     6     7     5
 0.0013800119     1     6     7     7
 -0.0000066542     1     6     7     8
 0.0006896773     1     6     7     9
 0.0009341608     1     6     7    10
 -0.0000866152     1     6     7    12
 -0.0019113636     1     6     7    14
 0.1132721750     1     6     8     1
 -0.0040654583     1     6     8     2
 0.0006516579     1     6     8     3
 -0.0023865077     1     6     8     5
 -0.0005584399     1     6     8     7
 -0.0010907838     1     6     8     8
 -0.0008962783     1     6     8     9
 0.0003254578     1     6     8    10
 -0.0004863947     1     6     8    12
 0.0013293960     1     6     8    14
 -0.0067149473     1     6     9     1
 0.0017061222     1     6     9     2
 -0.0008453334     1     6     9     3
 0.0006766407     1     6     9     5
 0.0004872986     1     6     9     7
 -0.0001510475     1     6     9     8
 -0.0005023765     1     6     9     9
 0.0006009995     1     6     9    10
 0.0010002705     1     6     9    12
 -0.0006354872     1     6     9    14
 0.0335175210     1     6    10     1
 -0.0018876850     1     6    10     2
 0.0041505602     1     6    10     3
 -0.0017181594     1     6    10     5
 0.0004058999     1     6    10     7
 0.0001952956     1     6    10     8
 -0.0000583084     1     6    10     9
 0.0030577803     1     6    10    10
 -0.0003147092     1     6    10    12
 0.0011025094     1     6    10    14
 0.0036065379     1     6    11     4
 -0.0001702409     1     6    11    11
 -0.0020296931     1     6    11    13
 0.0933194130     1     6    12     1
 -0.0043811542     1     6    12     2
 0.0010183883     1     6    12     3
 -0.0018785907     1     6    12     5
 -0.0013774991     1     6    12     7
 -0.0000597587     1     6    12     8
 -0.0000999933     1     6    12     9
 -0.0006400686     1     6    12    10
 -0.0006177063     1     6    12    12
 0.0019569485     1     6    12    14
 -0.0029856804     1     6    13     4
 -0.0022036143     1     6    13    11
 0.0015804071     1     6    13    13
 0.1421978641     1     6    14     1
 -0.0105785330     1     6    14     2
 0.0015604020     1     6    14     3
 -0.0034602211     1     6    14     5
 -0.0031169951     1     6    14     7
 0.0004709970     1     6    14     8
 -0.0023646715     1     6    14     9
 0.0002236210     1     6    14    10
 -0.0004314011     1     6    14    12
 0.0054716507     1     6    14    14
 -0.0963431142     1     7     2     1
 0.0019806181     1     7     2     2
 0.0007813489     1     7     2     3
 0.0004100301     1     7     2     5
 -0.0001312702     1     7     2     6
 0.0000828320     1     7     2     8
 -0.0000524483     1     7     2     9
 -0.0008211361     1     7     2    10
 0.0003038048     1     7     2    12
 0.0003699028     1     7     2    14
 -0.1199981284     1     7     3     1
 0.0096963888     1     7     3     2
 -0.0048413708     1     7     3     3
 0.0010953879     1     7     3     5
 -0.0015605918     1     7     3     6
 0.0003721424     1     7     3     8
 -0.0002521290     1     7     3     9
 -0.0025457086     1     7     3    10
 0.0011260952     1     7     3    12
 -0.0004671395     1     7     3    14
 -0.0051141006     1     7     4     4
 -0.0016767742     1     7     4    11
 0.0030139571     1     7     4    13
 -0.0466686171     1     7     5     1
 0.0022018818     1     7     5     2
 -0.0005077928     1     7     5     3
 -0.0033732694     1     7     5     5
 -0.0021418945     1     7     5     6
 0.0003372088     1     7     5     8
 -0.0001306042     1     7     5     9
 0.0011272619     1     7     5    10
 0.0016545560     1     7     5    12
 0.0019454745     1     7     5    14
 -0.0292581521     1     7     6     1
 0.0031462269     1     7     6     2
 -0.0004496494     1     7     6     3
 -0.0013519933     1     7     6     5
 -0.0022293146     1     7     6     6
 0.0005534502     1     7     6     8
 0.0002010436     1     7     6     9
 0.0005267072     1     7     6    10
 0.0012929111     1     7     6    12
 0.0012085991     1     7     6    14
 -0.3116065162     1     7     7     1
 0.0030631457     1     7     7     2
 -0.0040137791     1     7     7     3
 0.0002135275     1     7     7     5
 -0.0013800119     1     7     7     6
 0.0004032802     1     7     7     8
 0.0001259835     1     7     7     9
 -0.0014975774     1     7     7    10
 0.0006320638     1     7     7    12
 0.0004035146     1     7     7    14
 0.0279664002     1     7     8     1
 -0.0009834662     1     7     8     2
 0.0001674217     1     7     8     3
 0.0000541316     1     7     8     5
 0.0005584399     1     7     8     6
 -0.0005676141     1     7     8     8
 0.0000716117     1     7     8     9
 -0.0002078325     1     7     8    10
 -0.0004210323     1     7     8    12
 -0.0003017166     1     7     8    14
 -0.0445560204     1     7     9     1
 0.0007666990     1     7     9     2
 -0.0011983443     1     7     9     3
 -0.0005541227     1     7     9     5
 -0.0004872986     1     7     9     6
 0.0002864744     1     7     9     8
 -0.0001601893     1     7     9     9
 0.0008650767     1     7     9    10
 0.0002741021     1     7     9    12
 -0.0001039191     1     7     9    14
 -0.1068233252     1     7    10     1
 0.0043485513     1     7    10     2
 -0.0052237997     1     7    10     3
 0.0023291171     1     7    10     5
 -0.0004058999     1     7    10     6
 -0.0000045217     1     7    10     8
 0.0012122904     1     7    10     9
 -0.0023712957     1     7    10    10
 0.0009534384     1     7    10    12
 -0.0008663169     1     7    10    14
 -0.0027120976     1     7    11     4
 -0.0017086536     1     7    11    11
 0.0012193025     1     7    11    13
 0.0001387654     1     7    12     1
 -0.0011959021     1     7    12     2
 0.0008585757     1     7    12     3
 0.0013329246     1     7    12     5
 0.0013774991     1     7    12     6
 -0.0004353387     1     7    12     8
 -0.0000114199     1     7    12     9
 0.0005470753     1     7    12    10
 -0.0006698026     1     7    12    12
 -0.0004442263     1     7    12    14
 0.0043194759     1     7    13     4
 0.0012705314     1     7    13    11
 -0.0012781679     1     7    13    13
 0.1076129985     1     7    14     1
 -0.0038318298     1     7    14     2
 0.0023327530     1     7    14     3
 0.0024164591     1     7    14     5
 0.0031169951     1     7    14     6
 -0.0008875832     1     7    14     8
 -0.0004907445     1     7    14     9
 -0.0000829831     1     7    14    10
 -0.0012192892     1     7    14    12
 -0.0010545512     1     7    14    14
 -0.0161470117     1     8     2     1
 -0.0001970607     1     8     2     2
 -0.0003282732     1     8     2     3
 -0.0005927009     1     8     2     5
 -0.0001751070     1     8     2     6
 -0.0000828320     1     8     2     7
 0.0000533736     1     8     2     9
 -0.0002016021     1     8     2    10
 -0.0001724439     1     8     2    12
 -0.0003046348     1     8     2    14
 0.0130593593     1     8     3     1
 -0.0010852924     1     8     3     2
 -0.0009769589     1     8     3     3
 0.0011134093     1     8     3     5
 0.0005181100     1     8     3     6
 -0.0003721424     1     8     3     7
 0.0001547231     1     8     3     9
 -0.0009263642     1     8     3    10
 -0.0005477465     1     8     3    12
 -0.0001294997     1     8     3    14
 -0.0020719218     1     8     4     4
 -0.0010530131     1     8     4    11
 0.0006920811     1     8     4    13
 0.0625906447     1     8     5     1
 -0.0054057440     1     8     5     2
 0.0026041145     1     8     5     3
 0.0001774589     1     8     5     5
 0.0009537334     1     8     5     6
 -0.0003372088     1     8     5     7
 -0.0008453914     1     8     5     9
 0.0003479711     1     8     5    10
 -0.0007943656     1     8     5    12
 0.0000177066     1     8     5    14
 0.1132721750     1     8     6     1
 -0.0042572466     1     8     6     2
 0.0011663363     1     8     6     3
 -0.0014663408     1     8     6     5
 0.0003900496     1     8     6     6
 -0.0005534502     1     8     6     7
 -0.0007465126     1     8     6     9
 0.0001300644     1     8     6    10
 -0.0004291282     1     8     6    12
 0.0008571453     1     8     6    14
 0.0279664002     1     8     7     1
 -0.0010696746     1     8     7     2
 -0.0001961611     1     8     7     3
 -0.0002829565     1     8     7     5
 0.0000066542     1     8     7     6
 -0.0004032802     1     8     7     7
 -0.0002150828     1     8     7     9
 -0.0002042164     1     8     7    10
 0.0000135053     1     8     7    12
 0.0005838304     1     8     7    14
 -0.2542047398     1     8     8     1
 0.0014315462     1     8     8     2
 0.0004186018     1     8     8     3
 0.0021897159     1     8     8     5
 0.0010907838     1     8     8     6
 0.0005676141     1     8     8     7
 0.0004667136     1     8     8     9
 -0.0000525754     1     8     8    10
 -0.0002601083     1     8     8    12
 -0.0014861517     1     8     8    14
 0.0096442763     1     8     9     1
 -0.0006582488     1     8     9     2
 -0.0002497746     1     8     9     3
 0.0001133914     1     8     9     5
 0.0001510475     1     8     9     6
 -0.0002864744     1     8     9     7
 0.0001528567     1     8     9     9