&FCI NORB= 11,NELEC= 10,MS2=0,
 ORBSYM=1,1,1,1,1,1,1,1,1,1,1
 ISYM=1,
&END
 0.9840235094     1     1     2     2
 0.0674851763     1     1     2     4
 0.1246452128     1     1     2     6
 0.0339633921     1     1     2     9
 0.1072139588     1     1     2    10
 0.8707222376     1     1     3     3
 -0.1437916925     1     1     3     7
 -0.0734926351     1     1     3     8
 0.0674851763     1     1     4     2
 0.9500163337     1     1     4     4
 -0.0643092526     1     1     4     6
 0.1609896975     1     1     4     9
 -0.1566146391     1     1     4    10
 0.9983061179     1     1     5     5
 -0.2849890228     1     1     5    11
 0.1246452128     1     1     6     2
 -0.0643092526     1     1     6     4
 0.3156043465     1     1     6     6
 -0.0074393168     1     1     6     9
 0.1153488637     1     1     6    10
 -0.1437916925     1     1     7     3
 0.2839458979     1     1     7     7
 0.0653479812     1     1     7     8
 -0.0734926351     1     1     8     3
 0.0653479812     1     1     8     7
 0.3897525214     1     1     8     8
 0.0339633921     1     1     9     2
 0.1609896975     1     1     9     4
 -0.0074393168     1     1     9     6
 0.3827246236     1     1     9     9
 -0.0347114141     1     1     9    10
 0.1072139588     1     1    10     2
 -0.1566146391     1     1    10     4
 0.1153488637     1     1    10     6
 -0.0347114141     1     1    10     9
 0.4570517242     1     1    10    10
 -0.2849890228     1     1    11     5
 0.5397870450     1     1    11    11
 -0.9840235094     1     2     2     1
 0.0070130175     1     2     2     4
 -0.0012746086     1     2     2     6
 0.0030374615     1     2     2     9
 -0.0035751172     1     2     2    10
 -0.0311812272     1     2     3     3
 0.0107995934     1     2     3     7
 0.0085887180     1     2     3     8
 -0.0674851763     1     2     4     1
 -0.0359419304     1     2     4     4
 0.0062312771     1     2     4     6
 -0.0116155558     1     2     4     9
 0.0148505729     1     2     4    10
 -0.0409316862     1     2     5     5
 0.0239277464     1     2     5    11
 -0.1246452128     1     2     6     1
 0.0059573253     1     2     6     4
 -0.0013668016     1     2     6     6
 0.0021675011     1     2     6     9
 -0.0032458708     1     2     6    10
 0.0078769379     1     2     7     3
 -0.0033939305     1     2     7     7
 -0.0026664343     1     2     7     8
 0.0056063870     1     2     8     3
 -0.0023497871     1     2     8     7
 -0.0020146986     1     2     8     8
 -0.0339633921     1     2     9     1
 -0.0084047950     1     2     9     4
 0.0014790008     1     2     9     6
 -0.0039739857     1     2     9     9
 0.0046327778     1     2     9    10
 -0.1072139588     1     2    10     1
 0.0120742182     1     2    10     4
 -0.0026734506     1     2    10     6
 0.0052756622     1     2    10     9
 -0.0064042845     1     2    10    10
 0.0173661008     1     2    11     5
 -0.0135746215     1     2    11    11
 0.0021468725     1     3     2     7
 0.0024368617     1     3     2     8
 -0.8707222376     1     3     3     1
 0.0311812272     1     3     3     2
 0.0106003533     1     3     3     4
 0.0041761232     1     3     3     6
 0.0028819911     1     3     3     9
 -0.0005581713     1     3     3    10
 -0.0009855109     1     3     4     7
 -0.0039711952     1     3     4     8
 -0.0018500742     1     3     6     7
 0.0004182541     1     3     6     8
 0.1437916925     1     3     7     1
 -0.0078769379     1     3     7     2
 -0.0027808326     1     3     7     4
 -0.0036061229     1     3     7     6
 -0.0012567780     1     3     7     9
 -0.0019177229     1     3     7    10
 0.0734926351     1     3     8     1
 -0.0056063870     1     3     8     2
 -0.0017849873     1     3     8     4
 -0.0017198476     1     3     8     6
 0.0010319623     1     3     8     9
 -0.0039996478     1     3     8    10
 -0.0009006737     1     3     9     7
 0.0000368485     1     3     9     8
 -0.0014208542     1     3    10     7
 -0.0018228895     1     3    10     8
 -0.0674851763     1     4     2     1
 -0.0070130175     1     4     2     2
 -0.0002734640     1     4     2     6
 -0.0023403477     1     4     2     9
 0.0016613538     1     4     2    10
 -0.0106003533     1     4     3     3
 0.0019765449     1     4     3     7
 -0.0020770111     1     4     3     8
 -0.9500163337     1     4     4     1
 0.0359419304     1     4     4     2
 0.0081346808     1     4     4     6
 0.0006734150     1     4     4     9
 0.0101255506     1     4     4    10
 -0.0136890408     1     4     5     5
 0.0076332405     1     4     5    11
 0.0643092526     1     4     6     1
 -0.0059573253     1     4     6     2
 -0.0032545096     1     4     6     6
 0.0014158022     1     4     6     9
 -0.0035455407     1     4     6    10
 0.0027808326     1     4     7     3
 -0.0020813728     1     4     7     7
 -0.0009500472     1     4     7     8
 0.0017849873     1     4     8     3
 -0.0021474953     1     4     8     7
 -0.0012804771     1     4     8     8
 -0.1609896975     1     4     9     1
 0.0084047950     1     4     9     2
 0.0041915771     1     4     9     6
 0.0009880513     1     4     9     9
 0.0018775308     1     4     9    10
 0.1566146391     1     4    10     1
 -0.0120742182     1     4    10     2
 -0.0051627626     1     4    10     6
 -0.0017385401     1     4    10     9
 -0.0067674107     1     4    10    10
 0.0061328327     1     4    11     5
 -0.0044903507     1     4    11    11
 0.0048753057     1     5     2    11
 0.0011037022     1     5     4    11
 -0.9983061179     1     5     5     1
 0.0409316862     1     5     5     2
 0.0136890408     1     5     5     4
 0.0077664924     1     5     5     6
 0.0074206997     1     5     5     9
 0.0080371410     1     5     5    10
 -0.0021590315     1     5     6    11
 0.0014004242     1     5     9    11
 0.0011582130     1     5    10    11
 0.2849890228     1     5    11     1
 -0.0173661008     1     5    11     2
 -0.0061328327     1     5    11     4
 -0.0069141650     1     5    11     6
 -0.0029490974     1     5    11     9
 -0.0039573710     1     5    11    10
 -0.1246452128     1     6     2     1
 0.0012746086     1     6     2     2
 0.0002734640     1     6     2     4
 0.0006943728     1     6     2     9
 -0.0006070257     1     6     2    10
 -0.0041761232     1     6     3     3
 0.0017898340     1     6     3     7
 0.0021549190     1     6     3     8
 0.0643092526     1     6     4     1
 -0.0062312771     1     6     4     2
 -0.0081346808     1     6     4     4
 -0.0027802032     1     6     4     9
 0.0016729811     1     6     4    10
 -0.0077664924     1     6     5     5
 0.0046825689     1     6     5    11
 -0.3156043465     1     6     6     1
 0.0013668016     1     6     6     2
 0.0032545096     1     6     6     4
 0.0008517810     1     6     6     9
 -0.0008113689     1     6     6    10
 0.0036061229     1     6     7     3
 -0.0011637089     1     6     7     7
 -0.0009968041     1     6     7     8
 0.0017198476     1     6     8     3
 -0.0003741655     1     6     8     7
 -0.0003471425     1     6     8     8
 0.0074393168     1     6     9     1
 -0.0014790008     1     6     9     2
 -0.0041915771     1     6     9     4
 -0.0017677669     1     6     9     9
 0.0016816087     1     6     9    10
 -0.1153488637     1     6    10     1
 0.0026734506     1     6    10     2
 0.0051627626     1     6    10     4
 0.0022818133     1     6    10     9
 -0.0010767318     1     6    10    10
 0.0069141650     1     6    11     5
 -0.0045536323     1     6    11    11
 -0.0021468725     1     7     2     3
 -0.0003082880     1     7     2     8
 0.1437916925     1     7     3     1
 -0.0107995934     1     7     3     2
 -0.0019765449     1     7     3     4
 -0.0017898340     1     7     3     6
 -0.0004343866     1     7     3     9
 -0.0004702815     1     7     3    10
 0.0009855109     1     7     4     3
 0.0012049702     1     7     4     8
 0.0018500742     1     7     6     3
 -0.0006233927     1     7     6     8
 -0.2839458979     1     7     7     1
 0.0033939305     1     7     7     2
 0.0020813728     1     7     7     4
 0.0011637089     1     7     7     6
 0.0008011873     1     7     7     9
 0.0003341962     1     7     7    10
 -0.0653479812     1     7     8     1
 0.0023497871     1     7     8     2
 0.0021474953     1     7     8     4
 0.0003741655     1     7     8     6
 0.0001382263     1     7     8     9
 0.0008143983     1     7     8    10
 0.0009006737     1     7     9     3
 -0.0002531581     1     7     9     8
 0.0014208542     1     7    10     3
 0.0002777965     1     7    10     8
 -0.0024368617     1     8     2     3
 0.0003082880     1     8     2     7
 0.0734926351     1     8     3     1
 -0.0085887180     1     8     3     2
 0.0020770111     1     8     3     4
 -0.0021549190     1     8     3     6
 0.0008850353     1     8     3     9
 -0.0021531571     1     8     3    10
 0.0039711952     1     8     4     3
 -0.0012049702     1     8     4     7
 -0.0004182541     1     8     6     3
 0.0006233927     1     8     6     7
 -0.0653479812     1     8     7     1
 0.0026664343     1     8     7     2
 0.0009500472     1     8     7     4
 0.0009968041     1     8     7     6
 0.0003899451     1     8     7     9
 0.0005355871     1     8     7    10
 -0.3897525214     1     8     8     1
 0.0020146986     1     8     8     2
 0.0012804771     1     8     8     4
 0.0003471425     1     8     8     6
 -0.0000168753     1     8     8     9
 0.0007799580     1     8     8    10
 -0.0000368485     1     8     9     3
 0.0002531581     1     8     9     7
 0.0018228895     1     8    10     3
 -0.0002777965     1     8    10     7
 -0.0339633921     1     9     2     1
 -0.0030374615     1     9     2     2
 0.0023403477     1     9     2     4
 -0.0006943728     1     9     2     6
 -0.0006788513     1     9     2    10
 -0.0028819911     1     9     3     3
 0.0004343866     1     9     3     7
 -0.0008850353     1     9     3     8
 -0.1609896975     1     9     4     1
 0.0116155558     1     9     4     2
 -0.0006734150     1     9     4     4
 0.0027802032     1     9     4     6
 0.0036164185     1     9     4    10
 -0.0074206997     1     9     5     5
 0.0043545093     1     9     5    11
 0.0074393168     1     9     6     1
 -0.0021675011     1     9     6     2
 -0.0014158022     1     9     6     4
 -0.0008517810     1     9     6     6
 -0.0006023929     1     9     6    10
 0.0012567780     1     9     7     3
 -0.0008011873     1     9     7     7
 -0.0003899451     1     9     7     8
 -0.0010319623     1     9     8     3
 -0.0001382263     1     9     8     7
 0.0000168753     1     9     8     8
 -0.3827246236     1     9     9     1
 0.0039739857     1     9     9     2
 -0.0009880513     1     9     9     4
 0.0017677669     1     9     9     6
 0.0012804169     1     9     9    10
 0.0347114141     1     9    10     1
 -0.0052756622     1     9    10     2
 0.0017385401     1     9    10     4
 -0.0022818133     1     9    10     6
 -0.0032949996     1     9    10    10
 0.0029490974     1     9    11     5
 -0.0019990346     1     9    11    11
 -0.1072139588     1    10     2     1
 0.0035751172     1    10     2     2
 -0.0016613538     1    10     2     4
 0.0006070257     1    10     2     6
 0.0006788513     1    10     2     9
 0.0005581713     1    10     3     3
 0.0004702815     1    10     3     7
 0.0021531571     1    10     3     8
 0.1566146391     1    10     4     1
 -0.0148505729     1    10     4     2
 -0.0101255506     1    10     4     4
 -0.0016729811     1    10     4     6
 -0.0036164185     1    10     4     9
 -0.0080371410     1    10     5     5
 0.0049539993     1    10     5    11
 -0.1153488637     1    10     6     1
 0.0032458708     1    10     6     2
 0.0035455407     1    10     6     4
 0.0008113689     1    10     6     6
 0.0006023929     1    10     6     9
 0.0019177229     1    10     7     3
 -0.0003341962     1    10     7     7
 -0.0005355871     1    10     7     8
 0.0039996478     1    10     8     3
 -0.0008143983     1    10     8     7
 -0.0007799580     1    10     8     8
 0.0347114141     1    10     9     1
 -0.0046327778     1    10     9     2
 -0.0018775308     1    10     9     4
 -0.0016816087     1    10     9     6
 -0.0012804169     1    10     9     9
 -0.4570517242     1    10    10     1
 0.0064042845     1    10    10     2
 0.0067674107     1    10    10     4
 0.0010767318     1    10    10     6
 0.0032949996     1    10    10     9
 0.0039573710     1    10    11     5
 -0.0027077565     1    10    11    11
 -0.0048753057     1    11     2     5
 -0.0011037022     1    11     4     5
 0.2849890228     1    11     5     1
 -0.0239277464     1    11     5     2
 -0.0076332405     1    11     5     4
 -0.0046825689     1    11     5     6
 -0.0043545093     1    11     5     9
 -0.0049539993     1    11     5    10
 0.0021590315     1    11     6     5
 -0.0014004242     1    11     9     5
 -0.0011582130     1    11    10     5
 -0.5397870450     1    11    11     1
 0.0135746215     1    11    11     2
 0.0044903507     1    11    11     4
 0.0045536323     1    11    11     6
 0.0019990346     1    11    11     9
 0.0027077565     1    11    11    10
 -0.9840235094     2     1     1     2
 -0.0674851763     2     1     1     4
 -0.1246452128     2     1     1     6
 -0.0339633921     2     1     1     9
 -0.1072139588     2     1     1    10
 -0.0311812272     2     1     3     3
 0.0078769379     2     1     3     7
 0.0056063870     2     1     3     8
 0.0070130175     2     1     4     2
 -0.0359419304     2     1     4     4
 0.0059573253     2     1     4     6
 -0.0084047950     2     1     4     9
 0.0120742182     2     1     4    10
 -0.0409316862     2     1     5     5
 0.0173661008     2     1     5    11
 -0.0012746086     2     1     6     2
 0.0062312771     2     1     6     4
 -0.0013668016     2     1     6     6
 0.0014790008     2     1     6     9
 -0.0026734506     2     1     6    10
 0.0107995934     2     1     7     3
 -0.0033939305     2     1     7     7
 -0.0023497871     2     1     7     8
 0.0085887180     2     1     8     3
 -0.0026664343     2     1     8     7
 -0.0020146986     2     1     8     8
 0.0030374615     2     1     9     2
 -0.0116155558     2     1     9     4
 0.0021675011     2     1     9     6
 -0.0039739857     2     1     9     9
 0.0052756622     2     1     9    10
 -0.0035751172     2     1    10     2
 0.0148505729     2     1    10     4
 -0.0032458708     2     1    10     6
 0.0046327778     2     1    10     9
 -0.0064042845     2     1    10    10
 0.0239277464     2     1    11     5
 -0.0135746215     2     1    11    11
 0.9840235094     2     2     1     1
 -0.0070130175     2     2     1     4
 0.0012746086     2     2     1     6
 -0.0030374615     2     2     1     9
 0.0035751172     2     2     1    10
 0.5283863008     2     2     3     3
 -0.0593787667     2     2     3     7
 -0.0145103398     2     2     3     8
 -0.0070130175     2     2     4     1
 0.5507260044     2     2     4     4
 -0.0278260773     2     2     4     6
 0.0653079150     2     2     4     9
 -0.0594966871     2     2     4    10
 0.5785316330     2     2     5     5
 -0.1113517503     2     2     5    11
 0.0012746086     2     2     6     1
 -0.0278260773     2     2     6     4
 0.2799009337     2     2     6     6
 -0.0081392142     2     2     6     9
 0.0683945772     2     2     6    10
 -0.0593787667     2     2     7     3
 0.2556895128     2     2     7     7
 0.0429893064     2     2     7     8
 -0.0145103398     2     2     8     3
 0.0429893064     2     2     8     7
 0.3579949487     2     2     8     8
 -0.0030374615     2     2     9     1
 0.0653079150     2     2     9     4
 -0.0081392142     2     2     9     6
 0.3320628616     2     2     9     9
 0.0013976018     2     2     9    10
 0.0035751172     2     2    10     1
 -0.0594966871     2     2    10     4
 0.0683945772     2     2    10     6
 0.0013976018     2     2    10     9
 0.3779705300     2     2    10    10
 -0.1113517503     2     2    11     5
 0.4083069309     2     2    11    11
 -0.0021468725     2     3     1     7
 -0.0024368617     2     3     1     8
 0.0311812272     2     3     3     1
 -0.5283863008     2     3     3     2
 -0.0019392563     2     3     3     4
 -0.0574269782     2     3     3     6
 -0.0208965442     2     3     3     9
 -0.0641731918     2     3     3    10
 -0.0081452103     2     3     4     7
 -0.0275771600     2     3     4     8
 -0.0298362298     2     3     6     7
 0.0003656843     2     3     6     8
 -0.0107995934     2     3     7     1
 0.0593787667     2     3     7     2
 -0.0009257912     2     3     7     4
 -0.0189955678     2     3     7     6
 -0.0013792245     2     3     7     9
 -0.0040949736     2     3     7    10
 -0.0085887180     2     3     8     1
 0.0145103398     2     3     8     2
 -0.0052629228     2     3     8     4
 0.0020610763     2     3     8     6
 0.0150215046     2     3     8     9
 -0.0277837766     2     3     8    10
 -0.0055870078     2     3     9     7
 0.0118321042     2     3     9     8
 -0.0158497098     2     3    10     7
 -0.0267972079     2     3    10     8
 0.0674851763     2     4     1     1
 0.0070130175     2     4     1     2
 0.0002734640     2     4     1     6
 0.0023403477     2     4     1     9
 -0.0016613538     2     4     1    10
 0.0019392563     2     4     3     3
 -0.0073856605     2     4     3     7
 -0.0225408833     2     4     3     8
 0.0359419304     2     4     4     1
 -0.5507260044     2     4     4     2
 -0.0567601939     2     4     4     6
 -0.0057500871     2     4     4     9
 -0.0420771873     2     4     4    10
 0.0041411484     2     4     5     5
 -0.0050869746     2     4     5    11
 -0.0062312771     2     4     6     1
 0.0278260773     2     4     6     2
 -0.0093959505     2     4     6     6
 0.0197028125     2     4     6     9
 -0.0077569720     2     4     6    10
 0.0009257912     2     4     7     3
 -0.0111937609     2     4     7     7
 -0.0054659962     2     4     7     8
 0.0052629228     2     4     8     3
 -0.0095221195     2     4     8     7
 0.0009552740     2     4     8     8
 0.0116155558     2     4     9     1
 -0.0653079150     2     4     9     2
 0.0072465332     2     4     9     6
 0.0101021690     2     4     9     9
 -0.0237735876     2     4     9    10
 -0.0148505729     2     4    10     1
 0.0594966871     2     4    10     2
 -0.0009959134     2     4    10     6
 -0.0115575532     2     4    10     9
 -0.0094553355     2     4    10    10
 -0.0032485362     2     4    11     5
 0.0093372271     2     4    11    11
 -0.0048753057     2     5     1    11
 -0.0016494263     2     5     4    11
 0.0409316862     2     5     5     1
 -0.5785316330     2     5     5     2
 -0.0041411484     2     5     5     4
 -0.0552110275     2     5     5     6
 0.0003174146     2     5     5     9
 -0.0320514801     2     5     5    10
 -0.0233231015     2     5     6    11
 0.0072777382     2     5     9    11
 0.0026067731     2     5    10    11
 -0.0239277464     2     5    11     1
 0.1113517503     2     5    11     2
 0.0032485362     2     5    11     4
 -0.0038892836     2     5    11     6
 0.0097112789     2     5    11     9
 0.0177718088     2     5    11    10
 0.1246452128     2     6     1     1
 -0.0012746086     2     6     1     2
 -0.0002734640     2     6     1     4
 -0.0006943728     2     6     1     9
 0.0006070257     2     6     1    10
 0.0574269782     2     6     3     3
 -0.0106630046     2     6     3     7
 -0.0014803041     2     6     3     8
 -0.0059573253     2     6     4     1
 0.0278260773     2     6     4     2
 0.0567601939     2     6     4     4
 0.0123556717     2     6     4     9
 -0.0066519649     2     6     4    10
 0.0552110275     2     6     5     5
 -0.0191106039     2     6     5    11
 0.0013668016     2     6     6     1
 -0.2799009337     2     6     6     2
 0.0093959505     2     6     6     4
 -0.0017956133     2     6     6     9
 0.0051029723     2     6     6    10
 0.0189955678     2     6     7     3
 0.0055883986     2     6     7     7
 0.0080344994     2     6     7     8
 -0.0020610763     2     6     8     3
 0.0045974048     2     6     8     7
 0.0181451421     2     6     8     8
 -0.0021675011     2     6     9     1
 0.0081392142     2     6     9     2
 -0.0072465332     2     6     9     4
 0.0138832270     2     6     9     9
 0.0009949677     2     6     9    10
 0.0032458708     2     6    10     1
 -0.0683945772     2     6    10     2
 0.0009959134     2     6    10     4
 -0.0003613974     2     6    10     9
 0.0147072416     2     6    10    10
 0.0038892836     2     6    11     5
 0.0233858714     2     6    11    11
 0.0021468725     2     7     1     3
 0.0003082880     2     7     1     8
 -0.0078769379     2     7     3     1
 0.0593787667     2     7     3     2
 0.0073856605     2     7     3     4
 0.0106630046     2     7     3     6
 0.0040601471     2     7     3     9
 0.0113234501     2     7     3    10
 0.0081452103     2     7     4     3
 0.0038005342     2     7     4     8
 0.0298362298     2     7     6     3
 0.0034384778     2     7     6     8
 0.0033939305     2     7     7     1
 -0.2556895128     2     7     7     2
 0.0111937609     2     7     7     4
 -0.0055883986     2     7     7     6
 0.0005359040     2     7     7     9
 0.0007201714     2     7     7    10
 0.0026664343     2     7     8     1
 -0.0429893064     2     7     8     2
 0.0095221195     2     7     8     4
 -0.0045974048     2     7     8     6
 -0.0016167649     2     7     8     9
 -0.0014910223     2     7     8    10
 0.0055870078     2     7     9     3
 -0.0018224868     2     7     9     8
 0.0158497098     2     7    10     3
 0.0037363698     2     7    10     8
 0.0024368617     2     8     1     3
 -0.0003082880     2     8     1     7
 -0.0056063870     2     8     3     1
 0.0145103398     2     8     3     2
 0.0225408833     2     8     3     4
 0.0014803041     2     8     3     6
 0.0026205544     2     8     3     9
 -0.0012177049     2     8     3    10
 0.0275771600     2     8     4     3
 -0.0038005342     2     8     4     7
 -0.0003656843     2     8     6     3
 -0.0034384778     2     8     6     7
 0.0023497871     2     8     7     1
 -0.0429893064     2     8     7     2
 0.0054659962     2     8     7     4
 -0.0080344994     2     8     7     6
 0.0002933445     2     8     7     9
 -0.0052547833     2     8     7    10
 0.0020146986     2     8     8     1
 -0.3579949487     2     8     8     2
 -0.0009552740     2     8     8     4
 -0.0181451421     2     8     8     6
 -0.0017641260     2     8     8     9
 -0.0091903123     2     8     8    10
 -0.0118321042     2     8     9     3
 0.0018224868     2     8     9     7
 0.0267972079     2     8    10     3
 -0.0037363698     2     8    10     7
 0.0339633921     2     9     1     1
 0.0030374615     2     9     1     2
 -0.0023403477     2     9     1     4
 0.0006943728     2     9     1     6
 0.0006788513     2     9     1    10
 0.0208965442     2     9     3     3
 -0.0040601471     2     9     3     7
 -0.0026205544     2     9     3     8
 0.0084047950     2     9     4     1
 -0.0653079150     2     9     4     2
 0.0057500871     2     9     4     4
 -0.0123556717     2     9     4     6
 -0.0119863824     2     9     4    10
 -0.0003174146     2     9     5     5
 -0.0028170497     2     9     5    11
 -0.0014790008     2     9     6     1
 0.0081392142     2     9     6     2
 -0.0197028125     2     9     6     4
 0.0017956133     2     9     6     6
 0.0013640212     2     9     6    10
 0.0013792245     2     9     7     3
 -0.0005359040     2     9     7     7
 -0.0002933445     2     9     7     8
 -0.0150215046     2     9     8     3
 0.0016167649     2     9     8     7
 0.0017641260     2     9     8     8
 0.0039739857     2     9     9     1
 -0.3320628616     2     9     9     2
 -0.0101021690     2     9     9     4
 -0.0138832270     2     9     9     6
 -0.0079103841     2     9     9    10
 -0.0046327778     2     9    10     1
 -0.0013976018     2     9    10     2
 0.0115575532     2     9    10     4
 0.0003613974     2     9    10     6
 0.0019214560     2     9    10    10
 -0.0097112789     2     9    11     5
 0.0048744452     2     9    11    11
 0.1072139588     2    10     1     1
 -0.0035751172     2    10     1     2
 0.0016613538     2    10     1     4
 -0.0006070257     2    10     1     6
 -0.0006788513     2    10     1     9
 0.0641731918     2    10     3     3
 -0.0113234501     2    10     3     7
 0.0012177049     2    10     3     8
 -0.0120742182     2    10     4     1
 0.0594966871     2    10     4     2
 0.0420771873     2    10     4     4
 0.0066519649     2    10     4     6
 0.0119863824     2    10     4     9
 0.0320514801     2    10     5     5
 -0.0147967172     2    10     5    11
 0.0026734506     2    10     6     1
 -0.0683945772     2    10     6     2
 0.0077569720     2    10     6     4
 -0.0051029723     2    10     6     6
 -0.0013640212     2    10     6     9
 0.0040949736     2    10     7     3
 -0.0007201714     2    10     7     7
 0.0052547833     2    10     7     8
 0.0277837766     2    10     8     3
 0.0014910223     2    10     8     7
 0.0091903123     2    10     8     8
 -0.0052756622     2    10     9     1
 -0.0013976018     2    10     9     2
 0.0237735876     2    10     9     4
 -0.0009949677     2    10     9     6
 0.0079103841     2    10     9     9
 0.0064042845     2    10    10     1
 -0.3779705300     2    10    10     2
 0.0094553355     2    10    10     4
 -0.0147072416     2    10    10     6
 -0.0019214560     2    10    10     9
 -0.0177718088     2    10    11     5
 0.0169129124     2    10    11    11
 0.0048753057     2    11     1     5
 0.0016494263     2    11     4     5
 -0.0173661008     2    11     5     1
 0.1113517503     2    11     5     2
 0.0050869746     2    11     5     4
 0.0191106039     2    11     5     6
 0.0028170497     2    11     5     9
 0.0147967172     2    11     5    10
 0.0233231015     2    11     6     5
 -0.0072777382     2    11     9     5
 -0.0026067731     2    11    10     5
 0.0135746215     2    11    11     1
 -0.4083069309     2    11    11     2
 -0.0093372271     2    11    11     4
 -0.0233858714     2    11    11     6
 -0.0048744452     2    11    11     9
 -0.0169129124     2    11    11    10
 -0.8707222376     3     1     1     3
 0.1437916925     3     1     1     7
 0.0734926351     3     1     1     8
 0.0311812272     3     1     2     3
 -0.0078769379     3     1     2     7
 -0.0056063870     3     1     2     8
 0.0106003533     3     1     4     3
 -0.0027808326     3     1     4     7
 -0.0017849873     3     1     4     8
 0.0041761232     3     1     6     3
 -0.0036061229     3     1     6     7
 -0.0017198476     3     1     6     8
 0.0021468725     3     1     7     2
 -0.0009855109     3     1     7     4
 -0.0018500742     3     1     7     6
 -0.0009006737     3     1     7     9
 -0.0014208542     3     1     7    10
 0.0024368617     3     1     8     2
 -0.0039711952     3     1     8     4
 0.0004182541     3     1     8     6
 0.0000368485     3     1     8     9
 -0.0018228895     3     1     8    10
 0.0028819911     3     1     9     3
 -0.0012567780     3     1     9     7
 0.0010319623     3     1     9     8
 -0.0005581713     3     1    10     3
 -0.0019177229     3     1    10     7
 -0.0039996478     3     1    10     8
 0.0311812272     3     2     1     3
 -0.0107995934     3     2     1     7
 -0.0085887180     3     2     1     8
 -0.5283863008     3     2     2     3
 0.0593787667     3     2     2     7
 0.0145103398     3     2     2     8
 -0.0019392563     3     2     4     3
 -0.0009257912     3     2     4     7
 -0.0052629228     3     2     4     8
 -0.0574269782     3     2     6     3
 -0.0189955678     3     2     6     7
 0.0020610763     3     2     6     8
 -0.0021468725     3     2     7     1
 -0.0081452103     3     2     7     4
 -0.0298362298     3     2     7     6
 -0.0055870078     3     2     7     9
 -0.0158497098     3     2     7    10
 -0.0024368617     3     2     8     1
 -0.0275771600     3     2     8     4
 0.0003656843     3     2     8     6
 0.0118321042     3     2     8     9
 -0.0267972079     3     2     8    10
 -0.0208965442     3     2     9     3
 -0.0013792245     3     2     9     7
 0.0150215046     3     2     9     8
 -0.0641731918     3     2    10     3
 -0.0040949736     3     2    10     7
 -0.0277837766     3     2    10     8
 0.8707222376     3     3     1     1
 -0.0311812272     3     3     1     2
 -0.0106003533     3     3     1     4
 -0.0041761232     3     3     1     6
 -0.0028819911     3     3     1     9
 0.0005581713     3     3     1    10
 -0.0311812272     3     3     2     1
 0.5283863008     3     3     2     2
 0.0019392563     3     3     2     4
 0.0574269782     3     3     2     6
 0.0208965442     3     3     2     9
 0.0641731918     3     3     2    10
 -0.0106003533     3     3     4     1
 0.0019392563     3     3     4     2
 0.5628385984     3     3     4     4
 -0.0294495635     3     3     4     6
 0.0649147056     3     3     4     9
 -0.0640627017     3     3     4    10
 0.5867096590     3     3     5     5
 -0.1120774266     3     3     5    11
 -0.0041761232     3     3     6     1
 0.0574269782     3     3     6     2
 -0.0294495635     3     3     6     4
 0.2837085842     3     3     6     6
 -0.0071531366     3     3     6     9
 0.0711262270     3     3     6    10
 0.2449512568     3     3     7     7
 0.0333256650     3     3     7     8
 0.0333256650     3     3     8     7