&FCI NORB=  7,NELEC= 10,MS2=0,
 ORBSYM=1,1,1,1,1,1,1
 ISYM=1,
&END
 0.9842042298     1     1     2     2
 0.0683218404     1     1     2     4
 -0.1256423761     1     1     2     6
 0.8683948867     1     1     3     3
 0.1470956397     1     1     3     7
 0.0683218404     1     1     4     2
 0.9507684774     1     1     4     4
 0.0632284884     1     1     4     6
 0.9980960876     1     1     5     5
 -0.1256423761     1     1     6     2
 0.0632284884     1     1     6     4
 0.3477935918     1     1     6     6
 0.1470956397     1     1     7     3
 0.3252949094     1     1     7     7
 -0.9842042298     1     2     2     1
 -0.0069544442     1     2     2     4
 -0.0009542347     1     2     2     6
 0.0307183862     1     2     3     3
 0.0120872500     1     2     3     7
 -0.0683218404     1     2     4     1
 0.0357109794     1     2     4     4
 0.0067280375     1     2     4     6
 0.0406728967     1     2     5     5
 0.1256423761     1     2     6     1
 0.0063760598     1     2     6     4
 0.0019093259     1     2     6     6
 0.0085525873     1     2     7     3
 0.0048826951     1     2     7     7
 0.0026722415     1     3     2     7
 -0.8683948867     1     3     3     1
 -0.0307183862     1     3     3     2
 -0.0105959693     1     3     3     4
 0.0045565974     1     3     3     6
 -0.0012331011     1     3     4     7
 0.0021201637     1     3     6     7
 -0.1470956397     1     3     7     1
 -0.0085525873     1     3     7     2
 -0.0031379428     1     3     7     4
 0.0043413379     1     3     7     6
 -0.0683218404     1     4     2     1
 0.0069544442     1     4     2     2
 -0.0002307153     1     4     2     6
 0.0105959693     1     4     3     3
 0.0020741880     1     4     3     7
 -0.9507684774     1     4     4     1
 -0.0357109794     1     4     4     2
 0.0090732702     1     4     4     6
 0.0137882082     1     4     5     5
 -0.0632284884     1     4     6     1
 -0.0063760598     1     4     6     2
 0.0040308142     1     4     6     6
 0.0031379428     1     4     7     3
 0.0027306589     1     4     7     7
 -0.9980960876     1     5     5     1
 -0.0406728967     1     5     5     2
 -0.0137882082     1     5     5     4
 0.0088228494     1     5     5     6
 0.1256423761     1     6     2     1
 0.0009542347     1     6     2     2
 0.0002307153     1     6     2     4
 -0.0045565974     1     6     3     3
 -0.0021271542     1     6     3     7
 -0.0632284884     1     6     4     1
 -0.0067280375     1     6     4     2
 -0.0090732702     1     6     4     4
 -0.0088228494     1     6     5     5
 -0.3477935918     1     6     6     1
 -0.0019093259     1     6     6     2
 -0.0040308142     1     6     6     4
 -0.0043413379     1     6     7     3
 -0.0017673807     1     6     7     7
 -0.0026722415     1     7     2     3
 -0.1470956397     1     7     3     1
 -0.0120872500     1     7     3     2
 -0.0020741880     1     7     3     4
 0.0021271542     1     7     3     6
 0.0012331011     1     7     4     3
 -0.0021201637     1     7     6     3
 -0.3252949094     1     7     7     1
 -0.0048826951     1     7     7     2
 -0.0027306589     1     7     7     4
 0.0017673807     1     7     7     6
 -0.9842042298     2     1     1     2
 -0.0683218404     2     1     1     4
 0.1256423761     2     1     1     6
 0.0307183862     2     1     3     3
 0.0085525873     2     1     3     7
 -0.0069544442     2     1     4     2
 0.0357109794     2     1     4     4
 0.0063760598     2     1     4     6
 0.0406728967     2     1     5     5
 -0.0009542347     2     1     6     2
 0.0067280375     2     1     6     4
 0.0019093259     2     1     6     6
 0.0120872500     2     1     7     3
 0.0048826951     2     1     7     7
 0.9842042298     2     2     1     1
 0.0069544442     2     2     1     4
 0.0009542347     2     2     1     6
 0.5274185434     2     2     3     3
 0.0606434532     2     2     3     7
 0.0069544442     2     2     4     1
 0.5506918484     2     2     4     4
 0.0267298929     2     2     4     6
 0.5781186915     2     2     5     5
 0.0009542347     2     2     6     1
 0.0267298929     2     2     6     4
 0.3027439772     2     2     6     6
 0.0606434532     2     2     7     3
 0.2843213780     2     2     7     7
 -0.0026722415     2     3     1     7
 -0.0307183862     2     3     3     1
 -0.5274185434     2     3     3     2
 -0.0021425014     2     3     3     4
 0.0588596271     2     3     3     6
 0.0094597707     2     3     4     7
 -0.0339470160     2     3     6     7
 -0.0120872500     2     3     7     1
 -0.0606434532     2     3     7     2
 0.0018050269     2     3     7     4
 -0.0214632259     2     3     7     6
 0.0683218404     2     4     1     1
 -0.0069544442     2     4     1     2
 0.0002307153     2     4     1     6
 0.0021425014     2     4     3     3
 0.0077912863     2     4     3     7
 -0.0357109794     2     4     4     1
 -0.5506918484     2     4     4     2
 0.0584166088     2     4     4     6
 0.0049705172     2     4     5     5
 -0.0067280375     2     4     6     1
 -0.0267298929     2     4     6     2
 -0.0108488973     2     4     6     6
 -0.0018050269     2     4     7     3
 -0.0125207332     2     4     7     7
 -0.0406728967     2     5     5     1
 -0.5781186915     2     5     5     2
 -0.0049705172     2     5     5     4
 0.0573309252     2     5     5     6
 -0.1256423761     2     6     1     1
 -0.0009542347     2     6     1     2
 -0.0002307153     2     6     1     4
 -0.0588596271     2     6     3     3
 -0.0112489543     2     6     3     7
 -0.0063760598     2     6     4     1
 -0.0267298929     2     6     4     2
 -0.0584166088     2     6     4     4
 -0.0573309252     2     6     5     5
 -0.0019093259     2     6     6     1
 -0.3027439772     2     6     6     2
 0.0108488973     2     6     6     4
 0.0214632259     2     6     7     3
 -0.0081598089     2     6     7     7
 0.0026722415     2     7     1     3
 -0.0085525873     2     7     3     1
 -0.0606434532     2     7     3     2
 -0.0077912863     2     7     3     4
 0.0112489543     2     7     3     6
 -0.0094597707     2     7     4     3
 0.0339470160     2     7     6     3
 -0.0048826951     2     7     7     1
 -0.2843213780     2     7     7     2
 0.0125207332     2     7     7     4
 0.0081598089     2     7     7     6
 -0.8683948867     3     1     1     3
 -0.1470956397     3     1     1     7
 -0.0307183862     3     1     2     3
 -0.0085525873     3     1     2     7
 -0.0105959693     3     1     4     3
 -0.0031379428     3     1     4     7
 0.0045565974     3     1     6     3
 0.0043413379     3     1     6     7
 0.0026722415     3     1     7     2
 -0.0012331011     3     1     7     4
 0.0021201637     3     1     7     6
 -0.0307183862     3     2     1     3
 -0.0120872500     3     2     1     7
 -0.5274185434     3     2     2     3
 -0.0606434532     3     2     2     7
 -0.0021425014     3     2     4     3
 0.0018050269     3     2     4     7
 0.0588596271     3     2     6     3
 -0.0214632259     3     2     6     7
 -0.0026722415     3     2     7     1
 0.0094597707     3     2     7     4
 -0.0339470160     3     2     7     6
 0.8683948867     3     3     1     1
 0.0307183862     3     3     1     2
 0.0105959693     3     3     1     4
 -0.0045565974     3     3     1     6
 0.0307183862     3     3     2     1
 0.5274185434     3     3     2     2
 0.0021425014     3     3     2     4
 -0.0588596271     3     3     2     6
 0.0105959693     3     3     4     1
 0.0021425014     3     3     4     2
 0.5600318340     3     3     4     4
 0.0300187656     3     3     4     6
 0.5835030965     3     3     5     5
 -0.0045565974     3     3     6     1
 -0.0588596271     3     3     6     2
 0.0300187656     3     3     6     4
 0.3062883997     3     3     6     6
 0.2706202171     3     3     7     7
 -0.0105959693     3     4     1     3
 -0.0020741880     3     4     1     7
 -0.0021425014     3     4     2     3
 -0.0077912863     3     4     2     7
 -0.5600318340     3     4     4     3
 -0.0752830661     3     4     4     7
 -0.0300187656     3     4     6     3
 0.0001091158     3     4     6     7
 0.0012331011     3     4     7     1
 -0.0094597707     3     4     7     2
 0.0076339423     3     4     7     6
 -0.5835030965     3     5     5     3
 -0.0777634031     3     5     5     7
 0.0045565974     3     6     1     3
 0.0021271542     3     6     1     7
 0.0588596271     3     6     2     3
 0.0112489543     3     6     2     7
 -0.0300187656     3     6     4     3
 -0.0065825244     3     6     4     7
 -0.3062883997     3     6     6     3
 -0.0255796632     3     6     6     7
 -0.0021201637     3     6     7     1
 0.0339470160     3     6     7     2
 -0.0076339423     3     6     7     4
 0.1470956397     3     7     1     1
 0.0120872500     3     7     1     2
 0.0020741880     3     7     1     4
 -0.0021271542     3     7     1     6
 0.0085525873     3     7     2     1
 0.0606434532     3     7     2     2
 0.0077912863     3     7     2     4
 -0.0112489543     3     7     2     6
 0.0031379428     3     7     4     1
 -0.0018050269     3     7     4     2
 0.0752830661     3     7     4     4
 0.0065825244     3     7     4     6
 0.0777634031     3     7     5     5
 -0.0043413379     3     7     6     1
 0.0214632259     3     7     6     2
 -0.0001091158     3     7     6     4
 0.0255796632     3     7     6     6
 -0.2706202171     3     7     7     3
 -0.0683218404     4     1     1     2
 -0.9507684774     4     1     1     4
 -0.0632284884     4     1     1     6
 0.0069544442     4     1     2     2
 -0.0357109794     4     1     2     4
 -0.0063760598     4     1     2     6
 0.0105959693     4     1     3     3
 0.0031379428     4     1     3     7
 0.0137882082     4     1     5     5
 -0.0002307153     4     1     6     2
 0.0090732702     4     1     6     4
 0.0040308142     4     1     6     6
 0.0020741880     4     1     7     3
 0.0027306589     4     1     7     7
 0.0683218404     4     2     1     1
 -0.0357109794     4     2     1     4
 -0.0067280375     4     2     1     6
 -0.0069544442     4     2     2     1
 -0.5506918484     4     2     2     4
 -0.0267298929     4     2     2     6
 0.0021425014     4     2     3     3
 -0.0018050269     4     2     3     7
 0.0049705172     4     2     5     5
 0.0002307153     4     2     6     1
 0.0584166088     4     2     6     4
 -0.0108488973     4     2     6     6
 0.0077912863     4     2     7     3
 -0.0125207332     4     2     7     7
 0.0012331011     4     3     1     7
 -0.0094597707     4     3     2     7
 -0.0105959693     4     3     3     1
 -0.0021425014     4     3     3     2
 -0.5600318340     4     3     3     4
 -0.0300187656     4     3     3     6
 0.0076339423     4     3     6     7
 -0.0020741880     4     3     7     1
 -0.0077912863     4     3     7     2
 -0.0752830661     4     3     7     4
 0.0001091158     4     3     7     6
 0.9507684774     4     4     1     1
 0.0357109794     4     4     1     2
 -0.0090732702     4     4     1     6
 0.0357109794     4     4     2     1
 0.5506918484     4     4     2     2
 -0.0584166088     4     4     2     6
 0.5600318340     4     4     3     3
 0.0752830661     4     4     3     7
 0.6043596864     4     4     5     5
 -0.0090732702     4     4     6     1
 -0.0584166088     4     4     6     2
 0.2925414186     4     4     6     6
 0.0752830661     4     4     7     3
 0.2742128124     4     4     7     7
 -0.0137882082     4     5     5     1
 -0.0049705172     4     5     5     2
 -0.6043596864     4     5     5     4
 -0.0359019591     4     5     5     6
 0.0632284884     4     6     1     1
 0.0067280375     4     6     1     2
 0.0090732702     4     6     1     4
 0.0063760598     4     6     2     1
 0.0267298929     4     6     2     2
 0.0584166088     4     6     2     4
 0.0300187656     4     6     3     3
 0.0065825244     4     6     3     7
 0.0359019591     4     6     5     5
 -0.0040308142     4     6     6     1
 0.0108488973     4     6     6     2
 -0.2925414186     4     6     6     4
 -0.0001091158     4     6     7     3
 0.0075672746     4     6     7     7
 -0.0012331011     4     7     1     3
 0.0094597707     4     7     2     3
 -0.0031379428     4     7     3     1
 0.0018050269     4     7     3     2
 -0.0752830661     4     7     3     4
 -0.0065825244     4     7     3     6
 -0.0076339423     4     7     6     3
 -0.0027306589     4     7     7     1
 0.0125207332     4     7     7     2
 -0.2742128124     4     7     7     4
 -0.0075672746     4     7     7     6
 -0.9980960876     5     1     1     5
 -0.0406728967     5     1     2     5
 -0.0137882082     5     1     4     5
 0.0088228494     5     1     6     5
 -0.0406728967     5     2     1     5
 -0.5781186915     5     2     2     5
 -0.0049705172     5     2     4     5
 0.0573309252     5     2     6     5
 -0.5835030965     5     3     3     5
 -0.0777634031     5     3     7     5
 -0.0137882082     5     4     1     5
 -0.0049705172     5     4     2     5
 -0.6043596864     5     4     4     5
 -0.0359019591     5     4     6     5
 0.9980960876     5     5     1     1
 0.0406728967     5     5     1     2
 0.0137882082     5     5     1     4
 -0.0088228494     5     5     1     6
 0.0406728967     5     5     2     1
 0.5781186915     5     5     2     2
 0.0049705172     5     5     2     4
 -0.0573309252     5     5     2     6
 0.5835030965     5     5     3     3
 0.0777634031     5     5     3     7
 0.0137882082     5     5     4     1
 0.0049705172     5     5     4     2
 0.6043596864     5     5     4     4
 0.0359019591     5     5     4     6
 -0.0088228494     5     5     6     1
 -0.0573309252     5     5     6     2
 0.0359019591     5     5     6     4
 0.3021531815     5     5     6     6
 0.0777634031     5     5     7     3
 0.2794605764     5     5     7     7
 0.0088228494     5     6     1     5
 0.0573309252     5     6     2     5
 -0.0359019591     5     6     4     5
 -0.3021531815     5     6     6     5
 -0.0777634031     5     7     3     5
 -0.2794605764     5     7     7     5
 0.1256423761     6     1     1     2
 -0.0632284884     6     1     1     4
 -0.3477935918     6     1     1     6
 0.0009542347     6     1     2     2
 -0.0067280375     6     1     2     4
 -0.0019093259     6     1     2     6
 -0.0045565974     6     1     3     3
 -0.0043413379     6     1     3     7
 0.0002307153     6     1     4     2
 -0.0090732702     6     1     4     4
 -0.0040308142     6     1     4     6
 -0.0088228494     6     1     5     5
 -0.0021271542     6     1     7     3
 -0.0017673807     6     1     7     7
 -0.1256423761     6     2     1     1
 -0.0063760598     6     2     1     4
 -0.0019093259     6     2     1     6
 -0.0009542347     6     2     2     1
 -0.0267298929     6     2     2     4
 -0.3027439772     6     2     2     6
 -0.0588596271     6     2     3     3
 0.0214632259     6     2     3     7
 -0.0002307153     6     2     4     1
 -0.0584166088     6     2     4     4
 0.0108488973     6     2     4     6
 -0.0573309252     6     2     5     5
 -0.0112489543     6     2     7     3
 -0.0081598089     6     2     7     7
 -0.0021201637     6     3     1     7
 0.0339470160     6     3     2     7
 0.0045565974     6     3     3     1
 0.0588596271     6     3     3     2
 -0.0300187656     6     3     3     4
 -0.3062883997     6     3     3     6
 -0.0076339423     6     3     4     7
 0.0021271542     6     3     7     1
 0.0112489543     6     3     7     2
 -0.0065825244     6     3     7     4
 -0.0255796632     6     3     7     6
 0.0632284884     6     4     1     1
 0.0063760598     6     4     1     2
 -0.0040308142     6     4     1     6
 0.0067280375     6     4     2     1
 0.0267298929     6     4     2     2
 0.0108488973     6     4     2     6
 0.0300187656     6     4     3     3
 -0.0001091158     6     4     3     7
 0.0090732702     6     4     4     1
 0.0584166088     6     4     4     2
 -0.2925414186     6     4     4     6
 0.0359019591     6     4     5     5
 0.0065825244     6     4     7     3
 0.0075672746     6     4     7     7
 0.0088228494     6     5     5     1
 0.0573309252     6     5     5     2
 -0.0359019591     6     5     5     4
 -0.3021531815     6     5     5     6
 0.3477935918     6     6     1     1
 0.0019093259     6     6     1     2
 0.0040308142     6     6     1     4
 0.0019093259     6     6     2     1
 0.3027439772     6     6     2     2
 -0.0108488973     6     6     2     4
 0.3062883997     6     6     3     3
 0.0255796632     6     6     3     7
 0.0040308142     6     6     4     1
 -0.0108488973     6     6     4     2
 0.2925414186     6     6     4     4
 0.3021531815     6     6     5     5
 0.0255796632     6     6     7     3
 0.1876531684     6     6     7     7
 0.0021201637     6     7     1     3
 -0.0339470160     6     7     2     3
 0.0043413379     6     7     3     1
 -0.0214632259     6     7     3     2
 0.0001091158     6     7     3     4
 -0.0255796632     6     7     3     6
 0.0076339423     6     7     4     3
 0.0017673807     6     7     7     1
 0.0081598089     6     7     7     2
 -0.0075672746     6     7     7     4
 -0.1876531684     6     7     7     6
 -0.1470956397     7     1     1     3
 -0.3252949094     7     1     1     7
 -0.0120872500     7     1     2     3
 -0.0048826951     7     1     2     7
 -0.0026722415     7     1     3     2
 0.0012331011     7     1     3     4
 -0.0021201637     7     1     3     6
 -0.0020741880     7     1     4     3
 -0.0027306589     7     1     4     7
 0.0021271542     7     1     6     3
 0.0017673807     7     1     6     7
 -0.0085525873     7     2     1     3
 -0.0048826951     7     2     1     7
 -0.0606434532     7     2     2     3
 -0.2843213780     7     2     2     7
 0.0026722415     7     2     3     1
 -0.0094597707     7     2     3     4
 0.0339470160     7     2     3     6
 -0.0077912863     7     2     4     3
 0.0125207332     7     2     4     7
 0.0112489543     7     2     6     3
 0.0081598089     7     2     6     7
 0.1470956397     7     3     1     1
 0.0085525873     7     3     1     2
 0.0031379428     7     3     1     4
 -0.0043413379     7     3     1     6
 0.0120872500     7     3     2     1
 0.0606434532     7     3     2     2
 -0.0018050269     7     3     2     4
 0.0214632259     7     3     2     6
 -0.2706202171     7     3     3     7
 0.0020741880     7     3     4     1
 0.0077912863     7     3     4     2
 0.0752830661     7     3     4     4
 -0.0001091158     7     3     4     6
 0.0777634031     7     3     5     5
 -0.0021271542     7     3     6     1
 -0.0112489543     7     3     6     2
 0.0065825244     7     3     6     4
 0.0255796632     7     3     6     6
 -0.0031379428     7     4     1     3
 -0.0027306589     7     4     1     7
 0.0018050269     7     4     2     3
 0.0125207332     7     4     2     7
 -0.0012331011     7     4     3     1
 0.0094597707     7     4     3     2
 -0.0076339423     7     4     3     6
 -0.0752830661     7     4     4     3
 -0.2742128124     7     4     4     7
 -0.0065825244     7     4     6     3
 -0.0075672746     7     4     6     7
 -0.0777634031     7     5     5     3
 -0.2794605764     7     5     5     7
 0.0043413379     7     6     1     3
 0.0017673807     7     6     1     7
 -0.0214632259     7     6     2     3
 0.0081598089     7     6     2     7
 0.0021201637     7     6     3     1
 -0.0339470160     7     6     3     2
 0.0076339423     7     6     3     4
 0.0001091158     7     6     4     3
 -0.0075672746     7     6     4     7
 -0.0255796632     7     6     6     3
 -0.1876531684     7     6     6     7
 0.3252949094     7     7     1     1
 0.0048826951     7     7     1     2
 0.0027306589     7     7     1     4
 -0.0017673807     7     7     1     6
 0.0048826951     7     7     2     1
 0.2843213780     7     7     2     2
 -0.0125207332     7     7     2     4
 -0.0081598089     7     7     2     6
 0.2706202171     7     7     3     3
 0.0027306589     7     7     4     1
 -0.0125207332     7     7     4     2
 0.2742128124     7     7     4     4
 0.0075672746     7     7     4     6
 0.2794605764     7     7     5     5
 -0.0017673807     7     7     6     1
 -0.0081598089     7     7     6     2
 0.0075672746     7     7     6     4
 0.1876531684     7     7     6     6
0.0 0 0 0 0
 0.9842042298     1     1     2     2
 0.0683218404     1     1     2     4
 -0.1256423761     1     1     2     6
 0.8683948867     1     1     3     3
 0.1470956397     1     1     3     7
 0.0683218404     1     1     4     2
 0.9507684774     1     1     4     4
 0.0632284884     1     1     4     6
 0.9980960876     1     1     5     5
 -0.1256423761     1     1     6     2
 0.0632284884     1     1     6     4
 0.3477935918     1     1     6     6
 0.1470956397     1     1     7     3
 0.3252949094     1     1     7     7
 -0.9842042298     1     2     2     1
 -0.0069544442     1     2     2     4
 -0.0009542347     1     2     2     6
 0.0307183862     1     2     3     3
 0.0120872500     1     2     3     7
 -0.0683218404     1     2     4     1
 0.0357109794     1     2     4     4
 0.0067280375     1     2     4     6
 0.0406728967     1     2     5     5
 0.1256423761     1     2     6     1
 0.0063760598     1     2     6     4
 0.0019093259     1     2     6     6
 0.0085525873     1     2     7     3
 0.0048826951     1     2     7     7
 0.0026722415     1     3     2     7
 -0.8683948867     1     3     3     1
 -0.0307183862     1     3     3     2
 -0.0105959693     1     3     3     4
 0.0045565974     1     3     3     6
 -0.0012331011     1     3     4     7
 0.0021201637     1     3     6     7
 -0.1470956397     1     3     7     1
 -0.0085525873     1     3     7     2
 -0.0031379428     1     3     7     4
 0.0043413379     1     3     7     6
 -0.0683218404     1     4     2     1
 0.0069544442     1     4     2     2
 -0.0002307153     1     4     2     6
 0.0105959693     1     4     3     3
 0.0020741880     1     4     3     7
 -0.9507684774     1     4     4     1
 -0.0357109794     1     4     4     2
 0.0090732702     1     4     4     6
 0.0137882082     1     4     5     5
 -0.0632284884     1     4     6     1
 -0.0063760598     1     4     6     2
 0.0040308142     1     4     6     6
 0.0031379428     1     4     7     3
 0.0027306589     1     4     7     7
 -0.9980960876     1     5     5     1
 -0.0406728967     1     5     5     2
 -0.0137882082     1     5     5     4
 0.0088228494     1     5     5     6
 0.1256423761     1     6     2     1
 0.0009542347     1     6     2     2
 0.0002307153     1     6     2     4
 -0.0045565974     1     6     3     3
 -0.0021271542     1     6     3     7
 -0.0632284884     1     6     4     1
 -0.0067280375     1     6     4     2
 -0.0090732702     1     6     4     4
 -0.0088228494     1     6     5     5
 -0.3477935918     1     6     6     1
 -0.0019093259     1     6     6     2
 -0.0040308142     1     6     6     4
 -0.0043413379     1     6     7     3
 -0.0017673807     1     6     7     7
 -0.0026722415     1     7     2     3
 -0.1470956397     1     7     3     1
 -0.0120872500     1     7     3     2
 -0.0020741880     1     7     3     4
 0.0021271542     1     7     3     6
 0.0012331011     1     7     4     3
 -0.0021201637     1     7     6     3
 -0.3252949094     1     7     7     1
 -0.0048826951     1     7     7     2
 -0.0027306589     1     7     7     4
 0.0017673807     1     7     7     6
 -0.9842042298     2     1     1     2
 -0.0683218404     2     1     1     4
 0.1256423761     2     1     1     6
 0.0307183862     2     1     3     3
 0.0085525873     2     1     3     7
 -0.0069544442     2     1     4     2
 0.0357109794     2     1     4     4
 0.0063760598     2     1     4     6
 0.0406728967     2     1     5     5
 -0.0009542347     2     1     6     2
 0.0067280375     2     1     6     4
 0.0019093259     2     1     6     6
 0.0120872500     2     1     7     3
 0.0048826951     2     1     7     7
 0.9842042298     2     2     1     1
 0.0069544442     2     2     1     4
 0.0009542347     2     2     1     6
 0.5274185434     2     2     3     3
 0.0606434532     2     2     3     7
 0.0069544442     2     2     4     1
 0.5506918484     2     2     4     4
 0.0267298929     2     2     4     6
 0.5781186915     2     2     5     5
 0.0009542347     2     2     6     1
 0.0267298929     2     2     6     4
 0.3027439772     2     2     6     6
 0.0606434532     2     2     7     3
 0.2843213780     2     2     7     7
 -0.0026722415     2     3     1     7
 -0.0307183862     2     3     3     1
 -0.5274185434     2     3     3     2
 -0.0021425014     2     3     3     4
 0.0588596271     2     3     3     6
 0.0094597707     2     3     4     7
 -0.0339470160     2     3     6     7
 -0.0120872500     2     3     7     1
 -0.0606434532     2     3     7     2
 0.0018050269     2     3     7     4
 -0.0214632259     2     3     7     6
 0.0683218404     2     4     1     1
 -0.0069544442     2     4     1     2
 0.0002307153     2     4     1     6
 0.0021425014     2     4     3     3
 0.0077912863     2     4     3     7
 -0.0357109794     2     4     4     1
 -0.5506918484     2     4     4     2
 0.0584166088     2     4     4     6
 0.0049705172     2     4     5     5
 -0.0067280375     2     4     6     1
 -0.0267298929     2     4     6     2
 -0.0108488973     2     4     6     6
 -0.0018050269     2     4     7     3
 -0.0125207332     2     4     7     7
 -0.0406728967     2     5     5     1
 -0.5781186915     2     5     5     2
 -0.0049705172     2     5     5     4
 0.0573309252     2     5     5     6
 -0.1256423761     2     6     1     1
 -0.0009542347     2     6     1     2
 -0.0002307153     2     6     1     4
 -0.0588596271     2     6     3     3
 -0.0112489543     2     6     3     7
 -0.0063760598     2     6     4     1
 -0.0267298929     2     6     4     2
 -0.0584166088     2     6     4     4
 -0.0573309252     2     6     5     5
 -0.0019093259     2     6     6     1
 -0.3027439772     2     6     6     2
 0.0108488973     2     6     6     4
 0.0214632259     2     6     7     3
 -0.0081598089     2     6     7     7
 0.0026722415     2     7     1     3
 -0.0085525873     2     7     3     1
 -0.0606434532     2     7     3     2
 -0.0077912863     2     7     3     4
 0.0112489543     2     7     3     6
 -0.0094597707     2     7     4     3
 0.0339470160     2     7     6     3
 -0.0048826951     2     7     7     1
 -0.2843213780     2     7     7     2
 0.0125207332     2     7     7     4
 0.0081598089     2     7     7     6
 -0.8683948867     3     1     1     3
 -0.1470956397     3     1     1     7
 -0.0307183862     3     1     2     3
 -0.0085525873     3     1     2     7
 -0.0105959693     3     1     4     3
 -0.0031379428     3     1     4     7
 0.0045565974     3     1     6     3
 0.0043413379     3     1     6     7
 0.0026722415     3     1     7     2
 -0.0012331011     3     1     7     4
 0.0021201637     3     1     7     6
 -0.0307183862     3     2     1     3
 -0.0120872500     3     2     1     7
 -0.5274185434     3     2     2     3
 -0.0606434532     3     2     2     7
 -0.0021425014     3     2     4     3
 0.0018050269     3     2     4     7
 0.0588596271     3     2     6     3
 -0.0214632259     3     2     6     7
 -0.0026722415     3     2     7     1
 0.0094597707     3     2     7     4
 -0.0339470160     3     2     7     6
 0.8683948867     3     3     1     1
 0.0307183862     3     3     1     2
 0.0105959693     3     3     1     4
 -0.0045565974     3     3     1     6
 0.0307183862     3     3     2     1
 0.5274185434     3     3     2     2
 0.0021425014     3     3     2     4
 -0.0588596271     3     3     2     6
 0.0105959693     3     3     4     1
 0.0021425014     3     3     4     2
 0.5600318340     3     3     4     4
 0.0300187656     3     3     4     6
 0.5835030965     3     3     5     5
 -0.0045565974     3     3     6     1
 -0.0588596271     3     3     6     2
 0.0300187656     3     3     6     4
 0.3062883997     3     3     6     6
 0.2706202171     3     3     7     7
 -0.0105959693     3     4     1     3
 -0.0020741880     3     4     1     7
 -0.0021425014     3     4     2     3
 -0.0077912863     3     4     2     7
 -0.5600318340     3     4     4     3
 -0.0752830661     3     4     4     7
 -0.0300187656     3     4     6     3
 0.0001091158     3     4     6     7
 0.0012331011     3     4     7     1
 -0.0094597707     3     4     7     2
 0.0076339423     3     4     7     6
 -0.5835030965     3     5     5     3
 -0.0777634031     3     5     5     7
 0.0045565974     3     6     1     3
 0.0021271542     3     6     1     7
 0.0588596271     3     6     2     3
 0.0112489543     3     6     2     7
 -0.0300187656     3     6     4     3
 -0.0065825244     3     6     4     7
 -0.3062883997     3     6     6     3
 -0.0255796632     3     6     6     7
 -0.0021201637     3     6     7     1
 0.0339470160     3     6     7     2
 -0.0076339423     3     6     7     4
 0.1470956397     3     7     1     1
 0.0120872500     3     7     1     2
 0.0020741880     3     7     1     4
 -0.0021271542     3     7     1     6
 0.0085525873     3     7     2     1
 0.0606434532     3     7     2     2
 0.0077912863     3     7     2     4
 -0.0112489543     3     7     2     6
 0.0031379428     3     7     4     1
 -0.0018050269     3     7     4     2
 0.0752830661     3     7     4     4
 0.0065825244     3     7     4     6
 0.0777634031     3     7     5     5
 -0.0043413379     3     7     6     1
 0.0214632259     3     7     6     2
 -0.0001091158     3     7     6     4
 0.0255796632     3     7     6     6