&FCI NORB= 12,NELEC= 10,MS2=0,
 ORBSYM=1,1,1,1,1,1,1,1,1,1,1,1
 ISYM=1,
&END
 0.9843678462     1     1     2     2
 -0.0668584360     1     1     2     4
 0.1063494156     1     1     2     6
 0.0535889558     1     1     2     8
 0.1102387598     1     1     2    11
 0.8706198413     1     1     3     3
 -0.1162939157     1     1     3     7
 -0.0442447292     1     1     3     9
 -0.2214960494     1     1     3    12
 -0.0668584360     1     1     4     2
 0.9494728311     1     1     4     4
 0.0586619005     1     1     4     6
 -0.1222454481     1     1     4     8
 0.1588493182     1     1     4    11
 0.9955127313     1     1     5     5
 0.2214788593     1     1     5    10
 0.1063494156     1     1     6     2
 0.0586619005     1     1     6     4
 0.2797391316     1     1     6     6
 0.0147157364     1     1     6     8
 0.1066543216     1     1     6    11
 -0.1162939157     1     1     7     3
 0.2410475927     1     1     7     7
 0.0305333339     1     1     7     9
 0.1283820638     1     1     7    12
 0.0535889558     1     1     8     2
 -0.1222454481     1     1     8     4
 0.0147157364     1     1     8     6
 0.3089850835     1     1     8     8
 -0.0208261110     1     1     8    11
 -0.0442447292     1     1     9     3
 0.0305333339     1     1     9     7
 0.3142641411     1     1     9     9
 0.0679970781     1     1     9    12
 0.2214788593     1     1    10     5
 0.3958019512     1     1    10    10
 0.1102387598     1     1    11     2
 0.1588493182     1     1    11     4
 0.1066543216     1     1    11     6
 -0.0208261110     1     1    11     8
 0.4230985709     1     1    11    11
 -0.2214960494     1     1    12     3
 0.1283820638     1     1    12     7
 0.0679970781     1     1    12     9
 0.4508530804     1     1    12    12
 -0.9843678462     1     2     2     1
 0.0070334108     1     2     2     4
 0.0010833268     1     2     2     6
 -0.0020468568     1     2     2     8
 0.0034302633     1     2     2    11
 0.0311451429     1     2     3     3
 -0.0084613387     1     2     3     7
 -0.0051519316     1     2     3     9
 -0.0198736473     1     2     3    12
 0.0668584360     1     2     4     1
 0.0359772350     1     2     4     4
 0.0054257074     1     2     4     6
 -0.0077855232     1     2     4     8
 0.0143786063     1     2     4    11
 0.0408058284     1     2     5     5
 0.0169075300     1     2     5    10
 -0.1063494156     1     2     6     1
 0.0051809679     1     2     6     4
 0.0009942760     1     2     6     6
 -0.0011738358     1     2     6     8
 0.0027239261     1     2     6    11
 -0.0062123749     1     2     7     3
 0.0021278447     1     2     7     7
 0.0012140462     1     2     7     9
 0.0051954783     1     2     7    12
 -0.0535889558     1     2     8     1
 -0.0055938806     1     2     8     4
 -0.0007777592     1     2     8     6
 0.0020669723     1     2     8     8
 -0.0030032868     1     2     8    11
 -0.0034005279     1     2     9     3
 0.0010644702     1     2     9     7
 0.0008761458     1     2     9     9
 0.0024817561     1     2     9    12
 0.0128474203     1     2    10     5
 0.0072393011     1     2    10    10
 -0.1102387598     1     2    11     1
 0.0118390010     1     2    11     4
 0.0022728147     1     2    11     6
 -0.0034963916     1     2    11     8
 0.0061675531     1     2    11    11
 -0.0134969862     1     2    12     3
 0.0047951258     1     2    12     7
 0.0025994360     1     2    12     9
 0.0110151639     1     2    12    12
 -0.0016048328     1     3     2     7
 -0.0014076417     1     3     2     9
 -0.0050051485     1     3     2    12
 -0.8706198413     1     3     3     1
 -0.0311451429     1     3     3     2
 0.0105680922     1     3     3     4
 -0.0035316272     1     3     3     6
 -0.0036188013     1     3     3     8
 -0.0002459248     1     3     3    11
 -0.0006910520     1     3     4     7
 -0.0028140548     1     3     4     9
 -0.0021189205     1     3     4    12
 0.0014983477     1     3     6     7
 -0.0003193104     1     3     6     9
 0.0012940231     1     3     6    12
 0.1162939157     1     3     7     1
 0.0062123749     1     3     7     2
 -0.0021879175     1     3     7     4
 0.0026668474     1     3     7     6
 0.0014429479     1     3     7     8
 0.0016248402     1     3     7    11
 0.0007561719     1     3     8     7
 -0.0007756086     1     3     8     9
 0.0021293686     1     3     8    12
 0.0442447292     1     3     9     1
 0.0034005279     1     3     9     2
 -0.0010860435     1     3     9     4
 0.0008546319     1     3     9     6
 -0.0009840055     1     3     9     8
 0.0025494050     1     3     9    11
 0.0010677135     1     3    11     7
 0.0009719660     1     3    11     9
 0.0027679234     1     3    11    12
 0.2214960494     1     3    12     1
 0.0134969862     1     3    12     2
 -0.0046509863     1     3    12     4
 0.0042442052     1     3    12     6
 0.0035139109     1     3    12     8
 0.0046090514     1     3    12    11
 0.0668584360     1     4     2     1
 -0.0070334108     1     4     2     2
 -0.0002550226     1     4     2     6
 -0.0015961348     1     4     2     8
 0.0013915983     1     4     2    11
 -0.0105680922     1     4     3     3
 0.0016507743     1     4     3     7
 -0.0016724682     1     4     3     9
 0.0028644097     1     4     3    12
 -0.9494728311     1     4     4     1
 -0.0359772350     1     4     4     2
 -0.0068865387     1     4     4     6
 -0.0023110197     1     4     4     8
 -0.0094928863     1     4     4    11
 -0.0136342846     1     4     5     5
 -0.0055068277     1     4     5    10
 -0.0586619005     1     4     6     1
 -0.0051809679     1     4     6     2
 -0.0026083216     1     4     6     6
 0.0006941056     1     4     6     8
 -0.0031329776     1     4     6    11
 0.0021879175     1     4     7     3
 -0.0014532550     1     4     7     7
 -0.0007859645     1     4     7     9
 -0.0017424142     1     4     7    12
 0.1222454481     1     4     8     1
 0.0055938806     1     4     8     2
 0.0025418458     1     4     8     6
 0.0018408957     1     4     8     8
 0.0009190616     1     4     8    11
 0.0010860435     1     4     9     3
 -0.0014967117     1     4     9     7
 0.0001150371     1     4     9     9
 -0.0034957609     1     4     9    12
 -0.0045199241     1     4    10     5
 -0.0022516371     1     4    10    10
 -0.1588493182     1     4    11     1
 -0.0118390010     1     4    11     2
 -0.0044685556     1     4    11     6
 -0.0020819191     1     4    11     8
 -0.0061824030     1     4    11    11
 0.0046509863     1     4    12     3
 -0.0019018504     1     4    12     7
 -0.0019464574     1     4    12     9
 -0.0047760954     1     4    12    12
 0.0027759401     1     5     2    10
 -0.0006757994     1     5     4    10
 -0.9955127313     1     5     5     1
 -0.0408058284     1     5     5     2
 0.0136342846     1     5     5     4
 -0.0063811812     1     5     5     6
 -0.0071798715     1     5     5     8
 -0.0076063378     1     5     5    11
 -0.0021007597     1     5     6    10
 0.0001802869     1     5     8    10
 -0.2214788593     1     5    10     1
 -0.0128474203     1     5    10     2
 0.0045199241     1     5    10     4
 -0.0048302106     1     5    10     6
 -0.0028231920     1     5    10     8
 -0.0025436918     1     5    10    11
 0.0008225411     1     5    11    10
 -0.1063494156     1     6     2     1
 -0.0010833268     1     6     2     2
 0.0002550226     1     6     2     4
 -0.0004100495     1     6     2     8
 0.0004742557     1     6     2    11
 0.0035316272     1     6     3     3
 -0.0011538650     1     6     3     7
 -0.0011738276     1     6     3     9
 -0.0029671721     1     6     3    12
 -0.0586619005     1     6     4     1
 -0.0054257074     1     6     4     2
 0.0068865387     1     6     4     4
 -0.0018629560     1     6     4     8
 0.0013708731     1     6     4    11
 0.0063811812     1     6     5     5
 0.0027026731     1     6     5    10
 -0.2797391316     1     6     6     1
 -0.0009942760     1     6     6     2
 0.0026083216     1     6     6     4
 -0.0004757377     1     6     6     8
 0.0006368571     1     6     6    11
 -0.0026668474     1     6     7     3
 0.0006565535     1     6     7     7
 0.0003739464     1     6     7     9
 0.0018171632     1     6     7    12
 -0.0147157364     1     6     8     1
 0.0007777592     1     6     8     2
 -0.0025418458     1     6     8     4
 0.0009753665     1     6     8     8
 -0.0010507943     1     6     8    11
 -0.0008546319     1     6     9     3
 0.0000542681     1     6     9     7
 0.0002061019     1     6     9     9
 0.0001147561     1     6     9    12
 0.0048302106     1     6    10     5
 0.0022783310     1     6    10    10
 -0.1066543216     1     6    11     1
 -0.0022728147     1     6    11     2
 0.0044685556     1     6    11     4
 -0.0014773314     1     6    11     8
 0.0009685938     1     6    11    11
 -0.0042442052     1     6    12     3
 0.0012295291     1     6    12     7
 0.0005309325     1     6    12     9
 0.0027656954     1     6    12    12
 0.0016048328     1     7     2     3
 0.0001455476     1     7     2     9
 0.0003733469     1     7     2    12
 0.1162939157     1     7     3     1
 0.0084613387     1     7     3     2
 -0.0016507743     1     7     3     4
 0.0011538650     1     7     3     6
 0.0007089197     1     7     3     8
 0.0005140927     1     7     3    11
 0.0006910520     1     7     4     3
 0.0007079639     1     7     4     9
 0.0001664589     1     7     4    12
 -0.0014983477     1     7     6     3
 0.0003194594     1     7     6     9
 0.0005857313     1     7     6    12
 -0.2410475927     1     7     7     1
 -0.0021278447     1     7     7     2
 0.0014532550     1     7     7     4
 -0.0006565535     1     7     7     6
 -0.0006005628     1     7     7     8
 -0.0001848220     1     7     7    11
 -0.0007561719     1     7     8     3
 0.0003355889     1     7     8     9
 -0.0001079611     1     7     8    12
 -0.0305333339     1     7     9     1
 -0.0010644702     1     7     9     2
 0.0014967117     1     7     9     4
 -0.0000542681     1     7     9     6
 0.0000040086     1     7     9     8
 -0.0002232455     1     7     9    11
 -0.0010677135     1     7    11     3
 -0.0001057201     1     7    11     9
 -0.0000889750     1     7    11    12
 -0.1283820638     1     7    12     1
 -0.0047951258     1     7    12     2
 0.0019018504     1     7    12     4
 -0.0012295291     1     7    12     6
 -0.0011408191     1     7    12     8
 -0.0012383023     1     7    12    11
 -0.0535889558     1     8     2     1
 0.0020468568     1     8     2     2
 0.0015961348     1     8     2     4
 0.0004100495     1     8     2     6
 0.0005402839     1     8     2    11
 0.0036188013     1     8     3     3
 -0.0007089197     1     8     3     7
 0.0001803618     1     8     3     9
 -0.0014797516     1     8     3    12
 0.1222454481     1     8     4     1
 0.0077855232     1     8     4     2
 0.0023110197     1     8     4     4
 0.0018629560     1     8     4     6
 0.0030377301     1     8     4    11
 0.0071798715     1     8     5     5
 0.0030480746     1     8     5    10
 -0.0147157364     1     8     6     1
 0.0011738358     1     8     6     2
 -0.0006941056     1     8     6     4
 0.0004757377     1     8     6     6
 0.0004280314     1     8     6    11
 -0.0014429479     1     8     7     3
 0.0006005628     1     8     7     7
 0.0003306324     1     8     7     9
 0.0010333868     1     8     7    12
 -0.3089850835     1     8     8     1
 -0.0020669723     1     8     8     2
 -0.0018408957     1     8     8     4
 -0.0009753665     1     8     8     6
 -0.0011704374     1     8     8    11
 0.0009840055     1     8     9     3
 -0.0000040086     1     8     9     7
 -0.0002198234     1     8     9     9
 0.0000050533     1     8     9    12
 0.0028231920     1     8    10     5
 0.0013299137     1     8    10    10
 0.0208261110     1     8    11     1
 0.0034963916     1     8    11     2
 0.0020819191     1     8    11     4
 0.0014773314     1     8    11     6
 0.0024792472     1     8    11    11
 -0.0035139109     1     8    12     3
 0.0011408191     1     8    12     7
 0.0008345902     1     8    12     9
 0.0027172341     1     8    12    12
 0.0014076417     1     9     2     3
 -0.0001455476     1     9     2     7
 -0.0001253046     1     9     2    12
 0.0442447292     1     9     3     1
 0.0051519316     1     9     3     2
 0.0016724682     1     9     3     4
 0.0011738276     1     9     3     6
 -0.0001803618     1     9     3     8
 0.0015661798     1     9     3    11
 0.0028140548     1     9     4     3
 -0.0007079639     1     9     4     7
 -0.0015400269     1     9     4    12
 0.0003193104     1     9     6     3
 -0.0003194594     1     9     6     7
 -0.0004165688     1     9     6    12
 -0.0305333339     1     9     7     1
 -0.0012140462     1     9     7     2
 0.0007859645     1     9     7     4
 -0.0003739464     1     9     7     6
 -0.0003306324     1     9     7     8
 -0.0001182045     1     9     7    11
 0.0007756086     1     9     8     3
 -0.0003355889     1     9     8     7
 -0.0008292799     1     9     8    12
 -0.3142641411     1     9     9     1
 -0.0008761458     1     9     9     2
 -0.0001150371     1     9     9     4
 -0.0002061019     1     9     9     6
 0.0002198234     1     9     9     8
 -0.0005775271     1     9     9    11
 -0.0009719660     1     9    11     3
 0.0001057201     1     9    11     7
 0.0001894573     1     9    11    12
 -0.0679970781     1     9    12     1
 -0.0025994360     1     9    12     2
 0.0019464574     1     9    12     4
 -0.0005309325     1     9    12     6
 -0.0008345902     1     9    12     8
 -0.0002969841     1     9    12    11
 -0.0027759401     1    10     2     5
 0.0006757994     1    10     4     5
 -0.2214788593     1    10     5     1
 -0.0169075300     1    10     5     2
 0.0055068277     1    10     5     4
 -0.0027026731     1    10     5     6
 -0.0030480746     1    10     5     8
 -0.0032764388     1    10     5    11
 0.0021007597     1    10     6     5
 -0.0001802869     1    10     8     5
 -0.3958019512     1    10    10     1
 -0.0072393011     1    10    10     2
 0.0022516371     1    10    10     4
 -0.0022783310     1    10    10     6
 -0.0013299137     1    10    10     8
 -0.0013201688     1    10    10    11
 -0.0008225411     1    10    11     5
 -0.1102387598     1    11     2     1
 -0.0034302633     1    11     2     2
 -0.0013915983     1    11     2     4
 -0.0004742557     1    11     2     6
 -0.0005402839     1    11     2     8
 0.0002459248     1    11     3     3
 -0.0005140927     1    11     3     7
 -0.0015661798     1    11     3     9
 -0.0018007083     1    11     3    12
 -0.1588493182     1    11     4     1
 -0.0143786063     1    11     4     2
 0.0094928863     1    11     4     4
 -0.0013708731     1    11     4     6
 -0.0030377301     1    11     4     8
 0.0076063378     1    11     5     5
 0.0032764388     1    11     5    10
 -0.1066543216     1    11     6     1
 -0.0027239261     1    11     6     2
 0.0031329776     1    11     6     4
 -0.0006368571     1    11     6     6
 -0.0004280314     1    11     6     8
 -0.0016248402     1    11     7     3
 0.0001848220     1    11     7     7
 0.0001182045     1    11     7     9
 0.0011500470     1    11     7    12
 0.0208261110     1    11     8     1
 0.0030032868     1    11     8     2
 -0.0009190616     1    11     8     4
 0.0010507943     1    11     8     6
 0.0011704374     1    11     8     8
 -0.0025494050     1    11     9     3
 0.0002232455     1    11     9     7
 0.0005775271     1    11     9     9
 0.0004869275     1    11     9    12
 0.0025436918     1    11    10     5
 0.0013201688     1    11    10    10
 -0.4230985709     1    11    11     1
 -0.0061675531     1    11    11     2
 0.0061824030     1    11    11     4
 -0.0009685938     1    11    11     6
 -0.0024792472     1    11    11     8
 -0.0046090514     1    11    12     3
 0.0012383023     1    11    12     7
 0.0002969841     1    11    12     9
 0.0026800723     1    11    12    12
 0.0050051485     1    12     2     3
 -0.0003733469     1    12     2     7
 0.0001253046     1    12     2     9
 0.2214960494     1    12     3     1
 0.0198736473     1    12     3     2
 -0.0028644097     1    12     3     4
 0.0029671721     1    12     3     6
 0.0014797516     1    12     3     8
 0.0018007083     1    12     3    11
 0.0021189205     1    12     4     3
 -0.0001664589     1    12     4     7
 0.0015400269     1    12     4     9
 -0.0012940231     1    12     6     3
 -0.0005857313     1    12     6     7
 0.0004165688     1    12     6     9
 -0.1283820638     1    12     7     1
 -0.0051954783     1    12     7     2
 0.0017424142     1    12     7     4
 -0.0018171632     1    12     7     6
 -0.0010333868     1    12     7     8
 -0.0011500470     1    12     7    11
 -0.0021293686     1    12     8     3
 0.0001079611     1    12     8     7
 0.0008292799     1    12     8     9
 -0.0679970781     1    12     9     1
 -0.0024817561     1    12     9     2
 0.0034957609     1    12     9     4
 -0.0001147561     1    12     9     6
 -0.0000050533     1    12     9     8
 -0.0004869275     1    12     9    11
 -0.0027679234     1    12    11     3
 0.0000889750     1    12    11     7
 -0.0001894573     1    12    11     9
 -0.4508530804     1    12    12     1
 -0.0110151639     1    12    12     2
 0.0047760954     1    12    12     4
 -0.0027656954     1    12    12     6
 -0.0027172341     1    12    12     8
 -0.0026800723     1    12    12    11
 -0.9843678462     2     1     1     2
 0.0668584360     2     1     1     4
 -0.1063494156     2     1     1     6
 -0.0535889558     2     1     1     8
 -0.1102387598     2     1     1    11
 0.0311451429     2     1     3     3
 -0.0062123749     2     1     3     7
 -0.0034005279     2     1     3     9
 -0.0134969862     2     1     3    12
 0.0070334108     2     1     4     2
 0.0359772350     2     1     4     4
 0.0051809679     2     1     4     6
 -0.0055938806     2     1     4     8
 0.0118390010     2     1     4    11
 0.0408058284     2     1     5     5
 0.0128474203     2     1     5    10
 0.0010833268     2     1     6     2
 0.0054257074     2     1     6     4
 0.0009942760     2     1     6     6
 -0.0007777592     2     1     6     8
 0.0022728147     2     1     6    11
 -0.0084613387     2     1     7     3
 0.0021278447     2     1     7     7
 0.0010644702     2     1     7     9
 0.0047951258     2     1     7    12
 -0.0020468568     2     1     8     2
 -0.0077855232     2     1     8     4
 -0.0011738358     2     1     8     6
 0.0020669723     2     1     8     8
 -0.0034963916     2     1     8    11
 -0.0051519316     2     1     9     3
 0.0012140462     2     1     9     7
 0.0008761458     2     1     9     9
 0.0025994360     2     1     9    12
 0.0169075300     2     1    10     5
 0.0072393011     2     1    10    10
 0.0034302633     2     1    11     2
 0.0143786063     2     1    11     4
 0.0027239261     2     1    11     6
 -0.0030032868     2     1    11     8
 0.0061675531     2     1    11    11
 -0.0198736473     2     1    12     3
 0.0051954783     2     1    12     7
 0.0024817561     2     1    12     9
 0.0110151639     2     1    12    12
 0.9843678462     2     2     1     1
 -0.0070334108     2     2     1     4
 -0.0010833268     2     2     1     6
 0.0020468568     2     2     1     8
 -0.0034302633     2     2     1    11
 0.5284977199     2     2     3     3
 -0.0493616891     2     2     3     7
 -0.0077854438     2     2     3     9
 -0.0797216131     2     2     3    12
 -0.0070334108     2     2     4     1
 0.5504860792     2     2     4     4
 0.0259228136     2     2     4     6
 -0.0522325356     2     2     4     8
 0.0624041107     2     2     4    11
 0.5773188370     2     2     5     5
 0.0929699576     2     2     5    10
 -0.0010833268     2     2     6     1
 0.0259228136     2     2     6     4
 0.2548321484     2     2     6     6
 0.0067904503     2     2     6     8
 0.0675274760     2     2     6    11
 -0.0493616891     2     2     7     3
 0.2241754081     2     2     7     7
 0.0222598617     2     2     7     9
 0.0819305047     2     2     7    12
 0.0020468568     2     2     8     1
 -0.0522325356     2     2     8     4
 0.0067904503     2     2     8     6
 0.2738017480     2     2     8     8
 -0.0014630558     2     2     8    11
 -0.0077854438     2     2     9     3
 0.0222598617     2     2     9     7
 0.2970976487     2     2     9     9
 0.0471263043     2     2     9    12
 0.0929699576     2     2    10     5
 0.3241277253     2     2    10    10
 -0.0034302633     2     2    11     1
 0.0624041107     2     2    11     4
 0.0675274760     2     2    11     6
 -0.0014630558     2     2    11     8
 0.3473131946     2     2    11    11
 -0.0797216131     2     2    12     3
 0.0819305047     2     2    12     7
 0.0471263043     2     2    12     9
 0.3501063150     2     2    12    12
 0.0016048328     2     3     1     7
 0.0014076417     2     3     1     9
 0.0050051485     2     3     1    12
 -0.0311451429     2     3     3     1
 -0.5284977199     2     3     3     2
 0.0015786768     2     3     3     4
 -0.0484866338     2     3     3     6
 -0.0246360263     2     3     3     8
 -0.0612220813     2     3     3    11
 0.0058263665     2     3     4     7
 0.0198646071     2     3     4     9
 0.0153206896     2     3     4    12
 -0.0246874130     2     3     6     7
 0.0000025509     2     3     6     9
 -0.0196420090     2     3     6    12
 0.0084613387     2     3     7     1
 0.0493616891     2     3     7     2
 0.0005926409     2     3     7     4
 -0.0171217394     2     3     7     6
 -0.0027715706     2     3     7     8
 -0.0043043815     2     3     7    11
 -0.0070546403     2     3     8     7
 0.0154209549     2     3     8     9
 -0.0201615105     2     3     8    12
 0.0051519316     2     3     9     1
 0.0077854438     2     3     9     2
 0.0038772594     2     3     9     4
 0.0006026567     2     3     9     6
 0.0177826182     2     3     9     8
 -0.0183255745     2     3     9    11
 -0.0137195593     2     3    11     7
 -0.0175509286     2     3    11     9
 -0.0347046855     2     3    11    12
 0.0198736473     2     3    12     1
 0.0797216131     2     3    12     2
 0.0010050141     2     3    12     4
 -0.0074034033     2     3    12     6
 -0.0123696494     2     3    12     8
 -0.0203561640     2     3    12    11
 -0.0668584360     2     4     1     1
 0.0070334108     2     4     1     2
 0.0002550226     2     4     1     6
 0.0015961348     2     4     1     8
 -0.0013915983     2     4     1    11
 -0.0015786768     2     4     3     3
 0.0052787964     2     4     3     7
 0.0161955025     2     4     3     9
 0.0144724964     2     4     3    12
 -0.0359772350     2     4     4     1
 -0.5504860792     2     4     4     2
 -0.0492227940     2     4     4     6
 -0.0172085311     2     4     4     8
 -0.0474337371     2     4     4    11
 -0.0038913561     2     4     5     5
 -0.0030349477     2     4     5    10
 -0.0054257074     2     4     6     1
 -0.0259228136     2     4     6     2
 0.0094122401     2     4     6     6
 -0.0159966681     2     4     6     8
 0.0082461168     2     4     6    11
 -0.0005926409     2     4     7     3
 0.0091487318     2     4     7     7
 0.0078560646     2     4     7     9
 -0.0002319414     2     4     7    12
 0.0077855232     2     4     8     1
 0.0522325356     2     4     8     2
 -0.0065326883     2     4     8     6
 -0.0143658708     2     4     8     8
 0.0193146640     2     4     8    11
 -0.0038772594     2     4     9     3
 0.0102373989     2     4     9     7
 -0.0079407979     2     4     9     9
 0.0185632543     2     4     9    12
 -0.0022445914     2     4    10     5
 -0.0064996742     2     4    10    10
 -0.0143786063     2     4    11     1
 -0.0624041107     2     4    11     2
 0.0026895796     2     4    11     6
 0.0069718170     2     4    11     8
 0.0058052679     2     4    11    11
 -0.0010050141     2     4    12     3
 0.0011861868     2     4    12     7
 0.0157440506     2     4    12     9
 0.0073984892     2     4    12    12
 -0.0027759401     2     5     1    10
 -0.0007199429     2     5     4    10
 -0.0408058284     2     5     5     1
 -0.5773188370     2     5     5     2
 0.0038913561     2     5     5     4
 -0.0487609621     2     5     5     6
 -0.0133196229     2     5     5     8
 -0.0368218570     2     5     5    11
 0.0216387596     2     5     6    10
 -0.0003124079     2     5     8    10
 -0.0169075300     2     5    10     1
 -0.0929699576     2     5    10     2
 0.0022445914     2     5    10     4
 0.0079871602     2     5    10     6
 -0.0051971618     2     5    10     8
 -0.0171671424     2     5    10    11
 -0.0045195938     2     5    11    10
 0.1063494156     2     6     1     1
 0.0010833268     2     6     1     2
 -0.0002550226     2     6     1     4
 0.0004100495     2     6     1     8
 -0.0004742557     2     6     1    11
 0.0484866338     2     6     3     3
 -0.0071508796     2     6     3     7
 -0.0003436694     2     6     3     9
 -0.0116661061     2     6     3    12
 -0.0051809679     2     6     4     1
 -0.0259228136     2     6     4     2
 0.0492227940     2     6     4     4
 -0.0093027095     2     6     4     8
 0.0054762506     2     6     4    11
 0.0487609621     2     6     5     5
 0.0135312545     2     6     5    10
 -0.0009942760     2     6     6     1
 -0.2548321484     2     6     6     2
 -0.0094122401     2     6     6     4
 -0.0009208939     2     6     6     8
 0.0033794359     2     6     6    11
 0.0171217394     2     6     7     3
 0.0031126144     2     6     7     7
 0.0035971939     2     6     7     9
 0.0100308396     2     6     7    12
 0.0011738358     2     6     8     1
 -0.0067904503     2     6     8     2
 0.0065326883     2     6     8     4
 0.0067660558     2     6     8     8
 -0.0004301680     2     6     8    11
 -0.0006026567     2     6     9     3
 0.0019172261     2     6     9     7
 0.0100752544     2     6     9     9
 0.0060271079     2     6     9    12
 -0.0079871602     2     6    10     5
 0.0115176896     2     6    10    10
 -0.0027239261     2     6    11     1
 -0.0675274760     2     6    11     2
 -0.0026895796     2     6    11     4
 -0.0014170929     2     6    11     8
 0.0100026740     2     6    11    11
 0.0074034033     2     6    12     3
 0.0052579221     2     6    12     7
 0.0052865771     2     6    12     9
 0.0147069412     2     6    12    12
 -0.0016048328     2     7     1     3
 -0.0001455476     2     7     1     9
 -0.0003733469     2     7     1    12
 0.0062123749     2     7     3     1
 0.0493616891     2     7     3     2
 -0.0052787964     2     7     3     4
 0.0071508796     2     7     3     6
 0.0039978951     2     7     3     8
 0.0088688153     2     7     3    11
 -0.0058263665     2     7     4     3
 -0.0020963037     2     7     4     9
 -0.0014440655     2     7     4    12
 0.0246874130     2     7     6     3
 0.0016929915     2     7     6     9
 0.0047824845     2     7     6    12
 -0.0021278447     2     7     7     1
 -0.2241754081     2     7     7     2
 -0.0091487318     2     7     7     4
 -0.0031126144     2     7     7     6
 0.0000947458     2     7     7     8
 0.0007354618     2     7     7    11
 0.0070546403     2     7     8     3
 -0.0014141022     2     7     8     9
 0.0007243210     2     7     8    12
 -0.0012140462     2     7     9     1
 -0.0222598617     2     7     9     2
 -0.0102373989     2     7     9     4
 -0.0019172261     2     7     9     6
 -0.0013171186     2     7     9     8
 -0.0004689269     2     7     9    11
 0.0137195593     2     7    11     3
 0.0021217173     2     7    11     9
 0.0019634957     2     7    11    12
 -0.0051954783     2     7    12     1
 -0.0819305047     2     7    12     2
 -0.0011861868     2     7    12     4
 -0.0052579221     2     7    12     6
 -0.0007014492     2     7    12     8
 -0.0042057685     2     7    12    11
 0.0535889558     2     8     1     1
 -0.0020468568     2     8     1     2
 -0.0015961348     2     8     1     4
 -0.0004100495     2     8     1     6
 -0.0005402839     2     8     1    11
 0.0246360263     2     8     3     3
 -0.0039978951     2     8     3     7
 -0.0020185486     2     8     3     9
 -0.0074285920     2     8     3    12
 0.0055938806     2     8     4     1
 0.0522325356     2     8     4     2
 0.0172085311     2     8     4     4
 0.0093027095     2     8     4     6
 0.0120098273     2     8     4    11
 0.0133196229     2     8     5     5
 0.0049979252     2     8     5    10
 0.0007777592     2     8     6     1
 -0.0067904503     2     8     6     2
 0.0159966681     2     8     6     4
 0.0009208939     2     8     6     6
 0.0009833999     2     8     6    11
 0.0027715706     2     8     7     3
 -0.0000947458     2     8     7     7
 -0.0001366893     2     8     7     9
 0.0013823429     2     8     7    12
 -0.0020669723     2     8     8     1
 -0.2738017480     2     8     8     2
 0.0143658708     2     8     8     4
 -0.0067660558     2     8     8     6
 -0.0049279310     2     8     8    11
 -0.0177826182     2     8     9     3
 0.0013171186     2     8     9     7
 0.0035578576     2     8     9     9
 0.0009046699     2     8     9    12
 0.0051971618     2     8    10     5
 0.0046758030     2     8    10    10
 0.0030032868     2     8    11     1
 0.0014630558     2     8    11     2
 -0.0069718170     2     8    11     4
 0.0014170929     2     8    11     6
 0.0046960595     2     8    11    11
 0.0123696494     2     8    12     3