&FCI NORB= 15,NELEC= 10,MS2=0,
 ORBSYM=1,1,1,1,1,1,1,1,1,1,1,1,1,1,1
 ISYM=1,
&END
 0.9839924125     1     1     2     2
 0.0689310344     1     1     2     4
 -0.1483499532     1     1     2     6
 -0.1184687260     1     1     2     9
 0.0399195066     1     1     2    10
 -0.0693867470     1     1     2    12
 0.8670437202     1     1     3     3
 0.1792812685     1     1     3     7
 0.1076899883     1     1     3     8
 0.2529985787     1     1     3    13
 0.0689310344     1     1     4     2
 0.9533660612     1     1     4     4
 0.0809587588     1     1     4     6
 0.0640342080     1     1     4     9
 -0.2688596172     1     1     4    10
 0.0407699073     1     1     4    12
 1.0038138116     1     1     5     5
 -0.3467280294     1     1     5    11
 0.0244778766     1     1     5    15
 -0.1483499532     1     1     6     2
 0.0809587588     1     1     6     4
 0.3477850481     1     1     6     6
 0.1071894906     1     1     6     9
 -0.0898937685     1     1     6    10
 0.0571425864     1     1     6    12
 0.1792812685     1     1     7     3
 0.3252900879     1     1     7     7
 0.0988016995     1     1     7     8
 0.1675838463     1     1     7    13
 0.1076899883     1     1     8     3
 0.0988016995     1     1     8     7
 0.4543102881     1     1     8     8
 0.0846819877     1     1     8    13
 -0.1184687260     1     1     9     2
 0.0640342080     1     1     9     4
 0.1071894906     1     1     9     6
 0.4543833815     1     1     9     9
 -0.0560495951     1     1     9    10
 0.0197631985     1     1     9    12
 0.0399195066     1     1    10     2
 -0.2688596172     1     1    10     4
 -0.0898937685     1     1    10     6
 -0.0560495951     1     1    10     9
 0.5357643426     1     1    10    10
 -0.0456886165     1     1    10    12
 -0.3467280294     1     1    11     5
 0.6615299555     1     1    11    11
 -0.0299342546     1     1    11    15
 -0.0693867470     1     1    12     2
 0.0407699073     1     1    12     4
 0.0571425864     1     1    12     6
 0.0197631985     1     1    12     9
 -0.0456886165     1     1    12    10
 0.4314100731     1     1    12    12
 0.2529985787     1     1    13     3
 0.1675838463     1     1    13     7
 0.0846819877     1     1    13     8
 0.5461615291     1     1    13    13
 0.4173095035     1     1    14    14
 0.0244778766     1     1    15     5
 -0.0299342546     1     1    15    11
 0.4164585502     1     1    15    15
 -0.9839924125     1     2     2     1
 -0.0069312892     1     2     2     4
 -0.0016332564     1     2     2     6
 -0.0019763315     1     2     2     9
 0.0056927398     1     2     2    10
 -0.0015013472     1     2     2    12
 0.0306615635     1     2     3     3
 0.0132294597     1     2     3     7
 0.0117689401     1     2     3     8
 0.0240601932     1     2     3    13
 -0.0689310344     1     2     4     1
 0.0359348898     1     2     4     4
 0.0073988522     1     2     4     6
 0.0080268438     1     2     4     9
 -0.0226701525     1     2     4    10
 0.0060200732     1     2     4    12
 0.0411971624     1     2     5     5
 -0.0293675364     1     2     5    11
 0.0033393762     1     2     5    15
 0.1483499532     1     2     6     1
 0.0073980405     1     2     6     4
 0.0017683714     1     2     6     6
 0.0021523125     1     2     6     9
 -0.0052389417     1     2     6    10
 0.0014627295     1     2     6    12
 0.0100015749     1     2     7     3
 0.0049196640     1     2     7     7
 0.0043421880     1     2     7     8
 0.0092316108     1     2     7    13
 0.0080276517     1     2     8     3
 0.0038553811     1     2     8     7
 0.0033850339     1     2     8     8
 0.0066334729     1     2     8    13
 0.1184687260     1     2     9     1
 0.0071407397     1     2     9     4
 0.0018796526     1     2     9     6
 0.0016741334     1     2     9     9
 -0.0053269394     1     2     9    10
 0.0014188889     1     2     9    12
 -0.0399195066     1     2    10     1
 -0.0173357535     1     2    10     4
 -0.0037301791     1     2    10     6
 -0.0043878122     1     2    10     9
 0.0134900724     1     2    10    10
 -0.0027019609     1     2    10    12
 -0.0220386800     1     2    11     5
 0.0191786241     1     2    11    11
 -0.0016007916     1     2    11    15
 0.0693867470     1     2    12     1
 0.0044201096     1     2    12     4
 0.0010005804     1     2    12     6
 0.0011155727     1     2    12     9
 -0.0025461205     1     2    12    10
 0.0006262934     1     2    12    12
 0.0159446339     1     2    13     3
 0.0081568747     1     2    13     7
 0.0066145921     1     2    13     8
 0.0151013482     1     2    13    13
 -0.0003551909     1     2    14    14
 0.0016831711     1     2    15     5
 -0.0008284706     1     2    15    11
 0.0000119796     1     2    15    15
 0.0025816245     1     3     2     7
 0.0032347925     1     3     2     8
 0.0070399717     1     3     2    13
 -0.8670437202     1     3     3     1
 -0.0306615635     1     3     3     2
 -0.0104743015     1     3     3     4
 0.0045011209     1     3     3     6
 0.0001609578     1     3     3     9
 0.0025303432     1     3     3    10
 0.0049858887     1     3     3    12
 -0.0013216503     1     3     4     7
 -0.0050472062     1     3     4     8
 -0.0002923361     1     3     4    13
 0.0043765822     1     3     5    14
 0.0021194089     1     3     6     7
 -0.0004271217     1     3     6     8
 0.0019272166     1     3     6    13
 -0.1792812685     1     3     7     1
 -0.0100015749     1     3     7     2
 -0.0035362159     1     3     7     4
 0.0045790980     1     3     7     6
 0.0025882560     1     3     7     9
 -0.0001740588     1     3     7    10
 0.0016874206     1     3     7    12
 -0.1076899883     1     3     8     1
 -0.0080276517     1     3     8     2
 -0.0025477646     1     3     8     4
 0.0027958545     1     3     8     6
 0.0046893760     1     3     8     9
 -0.0039039239     1     3     8    10
 0.0035249162     1     3     8    12
 0.0019960018     1     3     9     7
 0.0029163129     1     3     9     8
 0.0049959688     1     3     9    13
 0.0002020316     1     3    10     7
 -0.0005251996     1     3    10     8
 0.0012575207     1     3    10    13
 0.0007814898     1     3    11    14
 -0.0008443639     1     3    12     7
 0.0006281869     1     3    12     8
 -0.0013252483     1     3    12    13
 -0.2529985787     1     3    13     1
 -0.0159446339     1     3    13     2
 -0.0055648364     1     3    13     4
 0.0062068842     1     3    13     6
 0.0058494495     1     3    13     9
 0.0013873323     1     3    13    10
 0.0031308350     1     3    13    12
 -0.0006227916     1     3    14     5
 0.0045638461     1     3    14    11
 -0.0036875693     1     3    14    15
 -0.0033554911     1     3    15    14
 -0.0689310344     1     4     2     1
 0.0069312892     1     4     2     2
 -0.0004623773     1     4     2     6
 0.0004405724     1     4     2     9
 -0.0041886453     1     4     2    10
 0.0013300337     1     4     2    12
 0.0104743015     1     4     3     3
 0.0023735573     1     4     3     7
 -0.0024206519     1     4     3     8
 0.0056244637     1     4     3    13
 -0.9533660612     1     4     4     1
 -0.0359348898     1     4     4     2
 0.0092800295     1     4     4     6
 0.0097335564     1     4     4     9
 -0.0067015490     1     4     4    10
 0.0003128386     1     4     4    12
 0.0137780069     1     4     5     5
 -0.0093855258     1     4     5    11
 -0.0037473408     1     4     5    15
 -0.0809587588     1     4     6     1
 -0.0073980405     1     4     6     2
 0.0041589046     1     4     6     6
 0.0029283838     1     4     6     9
 -0.0038170262     1     4     6    10
 0.0011466699     1     4     6    12
 0.0035362159     1     4     7     3
 0.0027793152     1     4     7     7
 0.0011787286     1     4     7     8
 0.0035801334     1     4     7    13
 0.0025477646     1     4     8     3
 0.0029308029     1     4     8     7
 0.0028577155     1     4     8     8
 0.0072498613     1     4     8    13
 -0.0640342080     1     4     9     1
 -0.0071407397     1     4     9     2
 0.0030194879     1     4     9     6
 0.0060566163     1     4     9     9
 -0.0020231161     1     4     9    10
 0.0007529188     1     4     9    12
 0.2688596172     1     4    10     1
 0.0173357535     1     4    10     2
 -0.0083573827     1     4    10     6
 -0.0067374815     1     4    10     9
 0.0029181904     1     4    10    10
 -0.0047850828     1     4    10    12
 -0.0078076787     1     4    11     5
 0.0065745778     1     4    11    11
 -0.0012360835     1     4    11    15
 -0.0407699073     1     4    12     1
 -0.0044201096     1     4    12     2
 0.0027101817     1     4    12     6
 0.0023424800     1     4    12     9
 -0.0058469369     1     4    12    10
 0.0034819069     1     4    12    12
 0.0055648364     1     4    13     3
 0.0026498005     1     4    13     7
 0.0032806802     1     4    13     8
 0.0039879709     1     4    13    13
 0.0034973738     1     4    14    14
 0.0010672042     1     4    15     5
 -0.0049611887     1     4    15    11
 0.0022708944     1     4    15    15
 -0.0059166932     1     5     2    11
 0.0015387406     1     5     2    15
 0.0050192198     1     5     3    14
 -0.0011331690     1     5     4    11
 -0.0047972415     1     5     4    15
 -1.0038138116     1     5     5     1
 -0.0411971624     1     5     5     2
 -0.0137780069     1     5     5     4
 0.0089602363     1     5     5     6
 0.0119963569     1     5     5     9
 0.0029494855     1     5     5    10
 0.0066086306     1     5     5    12
 -0.0023250398     1     5     6    11
 -0.0003913998     1     5     6    15
 0.0000353067     1     5     7    14
 0.0004817508     1     5     8    14
 0.0023915900     1     5     9    11
 0.0004504801     1     5     9    15
 0.0016565348     1     5    10    11
 0.0002869358     1     5    10    15
 0.3467280294     1     5    11     1
 0.0220386800     1     5    11     2
 0.0078076787     1     5    11     4
 -0.0089920298     1     5    11     6
 -0.0065770153     1     5    11     9
 -0.0000621404     1     5    11    10
 -0.0039848978     1     5    11    12
 0.0009657789     1     5    12    11
 -0.0006650006     1     5    12    15
 0.0003186526     1     5    13    14
 0.0006227916     1     5    14     3
 -0.0018851305     1     5    14     7
 -0.0010820559     1     5    14     8
 -0.0031749902     1     5    14    13
 -0.0244778766     1     5    15     1
 -0.0016831711     1     5    15     2
 -0.0010672042     1     5    15     4
 0.0013802017     1     5    15     6
 0.0024727706     1     5    15     9
 -0.0027354353     1     5    15    10
 0.0005605351     1     5    15    12
 0.1483499532     1     6     2     1
 0.0016332564     1     6     2     2
 0.0004623773     1     6     2     4
 0.0003033861     1     6     2     9
 -0.0015183037     1     6     2    10
 0.0004812901     1     6     2    12
 -0.0045011209     1     6     3     3
 -0.0024443802     1     6     3     7
 -0.0032468232     1     6     3     8
 -0.0043073864     1     6     3    13
 -0.0809587588     1     6     4     1
 -0.0073988522     1     6     4     2
 -0.0092800295     1     6     4     4
 -0.0001199795     1     6     4     9
 0.0046152928     1     6     4    10
 -0.0015767841     1     6     4    12
 -0.0089602363     1     6     5     5
 0.0066300849     1     6     5    11
 -0.0017775183     1     6     5    15
 -0.3477850481     1     6     6     1
 -0.0017683714     1     6     6     2
 -0.0041589046     1     6     6     4
 -0.0003837964     1     6     6     9
 0.0018994028     1     6     6    10
 -0.0004294724     1     6     6    12
 -0.0045790980     1     6     7     3
 -0.0017820504     1     6     7     7
 -0.0017631726     1     6     7     8
 -0.0036077570     1     6     7    13
 -0.0027958545     1     6     8     3
 -0.0008497313     1     6     8     7
 -0.0006032572     1     6     8     8
 -0.0010785196     1     6     8    13
 -0.1071894906     1     6     9     1
 -0.0018796526     1     6     9     2
 -0.0030194879     1     6     9     4
 0.0007048429     1     6     9     9
 0.0016085408     1     6     9    10
 -0.0003490051     1     6     9    12
 0.0898937685     1     6    10     1
 0.0037301791     1     6    10     2
 0.0083573827     1     6    10     4
 0.0005874685     1     6    10     9
 -0.0051641617     1     6    10    10
 0.0002390577     1     6    10    12
 0.0089920298     1     6    11     5
 -0.0068871329     1     6    11    11
 0.0004420960     1     6    11    15
 -0.0571425864     1     6    12     1
 -0.0010005804     1     6    12     2
 -0.0027101817     1     6    12     4
 -0.0001467921     1     6    12     9
 0.0003982251     1     6    12    10
 0.0004080460     1     6    12    12
 -0.0062068842     1     6    13     3
 -0.0028324872     1     6    13     7
 -0.0021005629     1     6    13     8
 -0.0054020895     1     6    13    13
 0.0008798350     1     6    14    14
 -0.0013802017     1     6    15     5
 0.0000058051     1     6    15    11
 0.0004547189     1     6    15    15
 -0.0025816245     1     7     2     3
 0.0004878918     1     7     2     8
 0.0010262010     1     7     2    13
 -0.1792812685     1     7     3     1
 -0.0132294597     1     7     3     2
 -0.0023735573     1     7     3     4
 0.0024443802     1     7     3     6
 0.0005490965     1     7     3     9
 -0.0003371247     1     7     3    10
 0.0025266052     1     7     3    12
 0.0013216503     1     7     4     3
 -0.0017702890     1     7     4     8
 0.0009083606     1     7     4    13
 0.0019596533     1     7     5    14
 -0.0021194089     1     7     6     3
 -0.0009116438     1     7     6     8
 -0.0007699489     1     7     6    13
 -0.3252900879     1     7     7     1
 -0.0049196640     1     7     7     2
 -0.0027793152     1     7     7     4
 0.0017820504     1     7     7     6
 0.0009300218     1     7     7     9
 0.0006169507     1     7     7    10
 0.0005951459     1     7     7    12
 -0.0988016995     1     7     8     1
 -0.0038553811     1     7     8     2
 -0.0029308029     1     7     8     4
 0.0008497313     1     7     8     6
 0.0016191316     1     7     8     9
 -0.0005486905     1     7     8    10
 0.0012701751     1     7     8    12
 -0.0019960018     1     7     9     3
 0.0005471011     1     7     9     8
 0.0005960434     1     7     9    13
 -0.0002020316     1     7    10     3
 -0.0003033613     1     7    10     8
 0.0003784688     1     7    10    13
 0.0003355454     1     7    11    14
 0.0008443639     1     7    12     3
 0.0005661462     1     7    12     8
 0.0000727868     1     7    12    13
 -0.1675838463     1     7    13     1
 -0.0081568747     1     7    13     2
 -0.0026498005     1     7    13     4
 0.0028324872     1     7    13     6
 0.0026733829     1     7    13     9
 0.0005410837     1     7    13    10
 0.0014382480     1     7    13    12
 0.0018851305     1     7    14     5
 0.0003696405     1     7    14    11
 -0.0014370947     1     7    14    15
 -0.0014302076     1     7    15    14
 -0.0032347925     1     8     2     3
 -0.0004878918     1     8     2     7
 -0.0000220175     1     8     2    13
 -0.1076899883     1     8     3     1
 -0.0117689401     1     8     3     2
 0.0024206519     1     8     3     4
 0.0032468232     1     8     3     6
 0.0017940393     1     8     3     9
 -0.0033821690     1     8     3    10
 0.0029122117     1     8     3    12
 0.0050472062     1     8     4     3
 0.0017702890     1     8     4     7
 0.0039786984     1     8     4    13
 0.0015842680     1     8     5    14
 0.0004271217     1     8     6     3
 0.0009116438     1     8     6     7
 0.0010273356     1     8     6    13
 -0.0988016995     1     8     7     1
 -0.0043421880     1     8     7     2
 -0.0011787286     1     8     7     4
 0.0017631726     1     8     7     6
 0.0010746183     1     8     7     9
 -0.0002525334     1     8     7    10
 0.0007070586     1     8     7    12
 -0.4543102881     1     8     8     1
 -0.0033850339     1     8     8     2
 -0.0028577155     1     8     8     4
 0.0006032572     1     8     8     6
 0.0012445654     1     8     8     9
 -0.0002009523     1     8     8    10
 0.0009535902     1     8     8    12
 -0.0029163129     1     8     9     3
 -0.0005471011     1     8     9     7
 -0.0004836391     1     8     9    13
 0.0005251996     1     8    10     3
 0.0003033613     1     8    10     7
 0.0008327201     1     8    10    13
 0.0002368842     1     8    11    14
 -0.0006281869     1     8    12     3
 -0.0005661462     1     8    12     7
 -0.0009315737     1     8    12    13
 -0.0846819877     1     8    13     1
 -0.0066145921     1     8    13     2
 -0.0032806802     1     8    13     4
 0.0021005629     1     8    13     6
 0.0019305084     1     8    13     9
 0.0011631805     1     8    13    10
 0.0010419952     1     8    13    12
 0.0010820559     1     8    14     5
 0.0006270928     1     8    14    11
 -0.0011812552     1     8    14    15
 -0.0011527660     1     8    15    14
 0.1184687260     1     9     2     1
 0.0019763315     1     9     2     2
 -0.0004405724     1     9     2     4
 -0.0003033861     1     9     2     6
 -0.0009582745     1     9     2    10
 0.0003079590     1     9     2    12
 -0.0001609578     1     9     3     3
 -0.0005490965     1     9     3     7
 -0.0017940393     1     9     3     8
 -0.0008362129     1     9     3    13
 -0.0640342080     1     9     4     1
 -0.0080268438     1     9     4     2
 -0.0097335564     1     9     4     4
 0.0001199795     1     9     4     6
 0.0047552609     1     9     4    10
 -0.0015836710     1     9     4    12
 -0.0119963569     1     9     5     5
 0.0089425166     1     9     5    11
 -0.0020332728     1     9     5    15
 -0.1071894906     1     9     6     1
 -0.0021523125     1     9     6     2
 -0.0029283838     1     9     6     4
 0.0003837964     1     9     6     6
 0.0010228927     1     9     6    10
 -0.0002019591     1     9     6    12
 -0.0025882560     1     9     7     3
 -0.0009300218     1     9     7     7
 -0.0010746183     1     9     7     8
 -0.0020728352     1     9     7    13
 -0.0046893760     1     9     8     3
 -0.0016191316     1     9     8     7
 -0.0012445654     1     9     8     8
 -0.0024108107     1     9     8    13
 -0.4543833815     1     9     9     1
 -0.0016741334     1     9     9     2
 -0.0060566163     1     9     9     4
 -0.0007048429     1     9     9     6
 0.0035803814     1     9     9    10
 -0.0008293449     1     9     9    12
 0.0560495951     1     9    10     1
 0.0043878122     1     9    10     2
 0.0067374815     1     9    10     4
 -0.0005874685     1     9    10     6
 -0.0040216299     1     9    10    10
 -0.0001085657     1     9    10    12
 0.0065770153     1     9    11     5
 -0.0051129957     1     9    11    11
 0.0003191899     1     9    11    15
 -0.0197631985     1     9    12     1
 -0.0011155727     1     9    12     2
 -0.0023424800     1     9    12     4
 0.0001467921     1     9    12     6
 0.0000730796     1     9    12    10
 0.0005054210     1     9    12    12
 -0.0058494495     1     9    13     3
 -0.0026733829     1     9    13     7
 -0.0019305084     1     9    13     8
 -0.0051119330     1     9    13    13
 0.0009126140     1     9    14    14
 -0.0024727706     1     9    15     5
 0.0007671450     1     9    15    11
 0.0004075595     1     9    15    15
 -0.0399195066     1    10     2     1
 -0.0056927398     1    10     2     2
 0.0041886453     1    10     2     4
 0.0015183037     1    10     2     6
 0.0009582745     1    10     2     9
 -0.0001342678     1    10     2    12
 -0.0025303432     1    10     3     3
 0.0003371247     1    10     3     7
 0.0033821690     1    10     3     8
 -0.0002328039     1    10     3    13
 0.2688596172     1    10     4     1
 0.0226701525     1    10     4     2
 0.0067015490     1    10     4     4
 -0.0046152928     1    10     4     6
 -0.0047552609     1    10     4     9
 0.0010457068     1    10     4    12
 -0.0029494855     1    10     5     5
 0.0018513549     1    10     5    11
 0.0030781578     1    10     5    15
 0.0898937685     1    10     6     1
 0.0052389417     1    10     6     2
 0.0038170262     1    10     6     4
 -0.0018994028     1    10     6     6
 -0.0010228927     1    10     6     9
 -0.0001569294     1    10     6    12
 0.0001740588     1    10     7     3
 -0.0006169507     1    10     7     7
 0.0002525334     1    10     7     8
 -0.0001603629     1    10     7    13
 0.0039039239     1    10     8     3
 0.0005486905     1    10     8     7
 0.0002009523     1    10     8     8
 -0.0003248289     1    10     8    13
 0.0560495951     1    10     9     1
 0.0053269394     1    10     9     2
 0.0020231161     1    10     9     4
 -0.0016085408     1    10     9     6
 -0.0035803814     1    10     9     9
 -0.0001814614     1    10     9    12
 -0.5357643426     1    10    10     1
 -0.0134900724     1    10    10     2
 -0.0029181904     1    10    10     4
 0.0051641617     1    10    10     6
 0.0040216299     1    10    10     9
 0.0028576042     1    10    10    12
 0.0000621404     1    10    11     5
 -0.0001031412     1    10    11    11
 0.0004484833     1    10    11    15
 0.0456886165     1    10    12     1
 0.0025461205     1    10    12     2
 0.0058469369     1    10    12     4
 -0.0003982251     1    10    12     6
 -0.0000730796     1    10    12     9
 -0.0013303589     1    10    12    12
 -0.0013873323     1    10    13     3
 -0.0005410837     1    10    13     7
 -0.0011631805     1    10    13     8
 -0.0003969555     1    10    13    13
 -0.0023126990     1    10    14    14
 0.0027354353     1    10    15     5
 0.0007418671     1    10    15    11
 -0.0012627359     1    10    15    15
 0.0059166932     1    11     2     5
 -0.0007726214     1    11     2    15
 -0.0037483921     1    11     3    14
 0.0011331690     1    11     4     5
 0.0036630470     1    11     4    15
 0.3467280294     1    11     5     1
 0.0293675364     1    11     5     2
 0.0093855258     1    11     5     4
 -0.0066300849     1    11     5     6
 -0.0089425166     1    11     5     9
 -0.0018513549     1    11     5    10
 -0.0049368269     1    11     5    12
 0.0023250398     1    11     6     5
 0.0004418349     1    11     6    15
 -0.0000433621     1    11     7    14
 -0.0003983590     1    11     8    14
 -0.0023915900     1    11     9     5
 -0.0004425523     1    11     9    15
 -0.0016565348     1    11    10     5
 -0.0002968583     1    11    10    15
 -0.6615299555     1    11    11     1
 -0.0191786241     1    11    11     2
 -0.0065745778     1    11    11     4
 0.0068871329     1    11    11     6
 0.0051129957     1    11    11     9
 0.0001031412     1    11    11    10
 0.0030749819     1    11    11    12
 -0.0009657789     1    11    12     5
 0.0004471814     1    11    12    15
 -0.0002250864     1    11    13    14
 -0.0045638461     1    11    14     3
 -0.0003696405     1    11    14     7
 -0.0006270928     1    11    14     8
 -0.0007957162     1    11    14    13
 0.0299342546     1    11    15     1
 0.0008284706     1    11    15     2
 0.0049611887     1    11    15     4
 -0.0000058051     1    11    15     6
 -0.0007671450     1    11    15     9
 -0.0007418671     1    11    15    10
 0.0002579390     1    11    15    12
 0.0693867470     1    12     2     1
 0.0015013472     1    12     2     2
 -0.0013300337     1    12     2     4
 -0.0004812901     1    12     2     6
 -0.0003079590     1    12     2     9
 0.0001342678     1    12     2    10
 -0.0049858887     1    12     3     3
 -0.0025266052     1    12     3     7
 -0.0029122117     1    12     3     8
 -0.0044683530     1    12     3    13
 -0.0407699073     1    12     4     1
 -0.0060200732     1    12     4     2
 -0.0003128386     1    12     4     4
 0.0015767841     1    12     4     6
 0.0015836710     1    12     4     9
 -0.0010457068     1    12     4    10
 -0.0066086306     1    12     5     5
 0.0049368269     1    12     5    11
 -0.0012190750     1    12     5    15
 -0.0571425864     1    12     6     1
 -0.0014627295     1    12     6     2
 -0.0011466699     1    12     6     4
 0.0004294724     1    12     6     6
 0.0002019591     1    12     6     9
 0.0001569294     1    12     6    10
 -0.0016874206     1    12     7     3
 -0.0005951459     1    12     7     7
 -0.0007070586     1    12     7     8
 -0.0013736691     1    12     7    13
 -0.0035249162     1    12     8     3
 -0.0012701751     1    12     8     7
 -0.0009535902     1    12     8     8
 -0.0019768139     1    12     8    13
 -0.0197631985     1    12     9     1
 -0.0014188889     1    12     9     2
 -0.0007529188     1    12     9     4
 0.0003490051     1    12     9     6
 0.0008293449     1    12     9     9
 0.0001814614     1    12     9    10
 0.0456886165     1    12    10     1
 0.0027019609     1    12    10     2
 0.0047850828     1    12    10     4
 -0.0002390577     1    12    10     6
 0.0001085657     1    12    10     9
 -0.0028576042     1    12    10    10
 0.0039848978     1    12    11     5
 -0.0030749819     1    12    11    11
 0.0001876283     1    12    11    15
 -0.4314100731     1    12    12     1
 -0.0006262934     1    12    12     2
 -0.0034819069     1    12    12     4
 -0.0004080460     1    12    12     6
 -0.0005054210     1    12    12     9
 0.0013303589     1    12    12    10
 -0.0031308350     1    12    13     3
 -0.0014382480     1    12    13     7
 -0.0010419952     1    12    13     8
 -0.0027990355     1    12    13    13
 0.0005897893     1    12    14    14
 -0.0005605351     1    12    15     5
 -0.0002579390     1    12    15    11
 0.0003494087     1    12    15    15
 -0.0070399717     1    13     2     3
 -0.0010262010     1    13     2     7
 0.0000220175     1    13     2     8
 -0.2529985787     1    13     3     1
 -0.0240601932     1    13     3     2
 -0.0056244637     1    13     3     4
 0.0043073864     1    13     3     6
 0.0008362129     1    13     3     9
 0.0002328039     1    13     3    10
 0.0044683530     1    13     3    12
 0.0002923361     1    13     4     3
 -0.0009083606     1    13     4     7
 -0.0039786984     1    13     4     8
 0.0035507626     1    13     5    14
 -0.0019272166     1    13     6     3
 0.0007699489     1    13     6     7
 -0.0010273356     1    13     6     8
 -0.1675838463     1    13     7     1
 -0.0092316108     1    13     7     2
 -0.0035801334     1    13     7     4
 0.0036077570     1    13     7     6
 0.0020728352     1    13     7     9
 0.0001603629     1    13     7    10
 0.0013736691     1    13     7    12
 -0.0846819877     1    13     8     1
 -0.0066334729     1    13     8     2
 -0.0072498613     1    13     8     4
 0.0010785196     1    13     8     6
 0.0024108107     1    13     8     9
 0.0003248289     1    13     8    10
 0.0019768139     1    13     8    12
 -0.0049959688     1    13     9     3
 -0.0005960434     1    13     9     7
 0.0004836391     1    13     9     8
 -0.0012575207     1    13    10     3
 -0.0003784688     1    13    10     7
 -0.0008327201     1    13    10     8
 0.0005702774     1    13    11    14
 0.0013252483     1    13    12     3
 -0.0000727868     1    13    12     7
 0.0009315737     1    13    12     8
 -0.5461615291     1    13    13     1
 -0.0151013482     1    13    13     2
 -0.0039879709     1    13    13     4
 0.0054020895     1    13    13     6
 0.0051119330     1    13    13     9
 0.0003969555     1    13    13    10
 0.0027990355     1    13    13    12
 0.0031749902     1    13    14     5
 0.0007957162     1    13    14    11
 -0.0025704197     1    13    14    15
 -0.0025434493     1    13    15    14
 -0.0050192198     1    14     3     5
 0.0037483921     1    14     3    11
 -0.0003470193     1    14     3    15
 -0.0043765822     1    14     5     3
 -0.0019596533     1    14     5     7
 -0.0015842680     1    14     5     8
 -0.0035507626     1    14     5    13
 -0.0000353067     1    14     7     5
 0.0000433621     1    14     7    11
 -0.0000065053     1    14     7    15
 -0.0004817508     1    14     8     5
 0.0003983590     1    14     8    11
 -0.0000281901     1    14     8    15
 -0.0007814898     1    14    11     3
 -0.0003355454     1    14    11     7
 -0.0002368842     1    14    11     8
 -0.0005702774     1    14    11    13
 -0.0003186526     1    14    13     5
 0.0002250864     1    14    13    11
 -0.0000253570     1    14    13    15
 -0.4173095035     1    14    14     1
 0.0003551909     1    14    14     2
 -0.0034973738     1    14    14     4
 -0.0008798350     1    14    14     6
 -0.0009126140     1    14    14     9
 0.0023126990     1    14    14    10
 -0.0005897893     1    14    14    12
 0.0033554911     1    14    15     3
 0.0014302076     1    14    15     7
 0.0011527660     1    14    15     8
 0.0025434493     1    14    15    13
 -0.0015387406     1    15     2     5
 0.0007726214     1    15     2    11
 0.0003470193     1    15     3    14
 0.0047972415     1    15     4     5
 -0.0036630470     1    15     4    11
 -0.0244778766     1    15     5     1
 -0.0033393762     1    15     5     2
 0.0037473408     1    15     5     4
 0.0017775183     1    15     5     6
 0.0020332728     1    15     5     9
 -0.0030781578     1    15     5    10
 0.0012190750     1    15     5    12
 0.0003913998     1    15     6     5
 -0.0004418349     1    15     6    11
 0.0000065053     1    15     7    14
 0.0000281901     1    15     8    14
 -0.0004504801     1    15     9     5
 0.0004425523     1    15     9    11
 -0.0002869358     1    15    10     5
 0.0002968583     1    15    10    11
 0.0299342546     1    15    11     1
 0.0016007916     1    15    11     2