&FCI NORB=  9,NELEC= 10,MS2=0,
 ORBSYM=1,1,1,1,1,1,1,1,1
 ISYM=1,
&END
 0.9851694502     1     1     2     2
 -0.0678628645     1     1     2     4
 -0.1133742593     1     1     2     6
 -0.0307717828     1     1     2     9
 0.8717346244     1     1     3     3
 -0.1292908582     1     1     3     7
 -0.0669066349     1     1     3     8
 -0.0678628645     1     1     4     2
 0.9512757678     1     1     4     4
 -0.0562517691     1     1     4     6
 0.1469201739     1     1     4     9
 0.9938584995     1     1     5     5
 -0.1133742593     1     1     6     2
 -0.0562517691     1     1     6     4
 0.3152234236     1     1     6     6
 -0.0074394174     1     1     6     9
 -0.1292908582     1     1     7     3
 0.2836093395     1     1     7     7
 0.0650436079     1     1     7     8
 -0.0669066349     1     1     8     3
 0.0650436079     1     1     8     7
 0.3887835251     1     1     8     8
 -0.0307717828     1     1     9     2
 0.1469201739     1     1     9     4
 -0.0074394174     1     1     9     6
 0.3820807138     1     1     9     9
 -0.9851694502     1     2     2     1
 0.0069738649     1     2     2     4
 -0.0008822393     1     2     2     6
 0.0031531674     1     2     2     9
 0.0309549886     1     2     3     3
 -0.0102643759     1     2     3     7
 -0.0084396870     1     2     3     8
 0.0678628645     1     2     4     1
 0.0357960607     1     2     4     4
 -0.0059507360     1     2     4     6
 0.0111440799     1     2     4     9
 0.0404218074     1     2     5     5
 0.1133742593     1     2     6     1
 -0.0055047539     1     2     6     4
 0.0014484215     1     2     6     6
 -0.0021299181     1     2     6     9
 -0.0073780987     1     2     7     3
 0.0034407688     1     2     7     7
 0.0027046871     1     2     7     8
 -0.0054942374     1     2     8     3
 0.0023765901     1     2     8     7
 0.0019879074     1     2     8     8
 0.0307717828     1     2     9     1
 0.0080154749     1     2     9     4
 -0.0014752959     1     2     9     6
 0.0040297033     1     2     9     9
 -0.0021256214     1     3     2     7
 -0.0024321019     1     3     2     8
 -0.8717346244     1     3     3     1
 -0.0309549886     1     3     3     2
 0.0106070749     1     3     3     4
 0.0041593930     1     3     3     6
 0.0028428565     1     3     3     9
 -0.0010111402     1     3     4     7
 -0.0040605800     1     3     4     8
 -0.0018624047     1     3     6     7
 0.0004321507     1     3     6     8
 0.1292908582     1     3     7     1
 0.0073780987     1     3     7     2
 -0.0025519192     1     3     7     4
 -0.0035530378     1     3     7     6
 -0.0011829292     1     3     7     9
 0.0669066349     1     3     8     1
 0.0054942374     1     3     8     2
 -0.0017271897     1     3     8     4
 -0.0016997576     1     3     8     6
 0.0010661501     1     3     8     9
 -0.0009104394     1     3     9     7
 0.0000305440     1     3     9     8
 0.0678628645     1     4     2     1
 -0.0069738649     1     4     2     2
 0.0000997555     1     4     2     6
 0.0023070299     1     4     2     9
 -0.0106070749     1     4     3     3
 0.0017007495     1     4     3     7
 -0.0022698249     1     4     3     8
 -0.9512757678     1     4     4     1
 -0.0357960607     1     4     4     2
 0.0080210542     1     4     4     6
 0.0009354115     1     4     4     9
 -0.0136694911     1     4     5     5
 0.0562517691     1     4     6     1
 0.0055047539     1     4     6     2
 -0.0032417897     1     4     6     6
 0.0014783946     1     4     6     9
 0.0025519192     1     4     7     3
 -0.0021007953     1     4     7     7
 -0.0009466551     1     4     7     8
 0.0017271897     1     4     8     3
 -0.0021665546     1     4     8     7
 -0.0012756845     1     4     8     8
 -0.1469201739     1     4     9     1
 -0.0080154749     1     4     9     2
 0.0041406625     1     4     9     6
 0.0009271222     1     4     9     9
 -0.9938584995     1     5     5     1
 -0.0404218074     1     5     5     2
 0.0136694911     1     5     5     4
 0.0077678083     1     5     5     6
 0.0075014080     1     5     5     9
 0.1133742593     1     6     2     1
 0.0008822393     1     6     2     2
 -0.0000997555     1     6     2     4
 -0.0006552854     1     6     2     9
 -0.0041593930     1     6     3     3
 0.0016531719     1     6     3     7
 0.0021396516     1     6     3     8
 0.0562517691     1     6     4     1
 0.0059507360     1     6     4     2
 -0.0080210542     1     6     4     4
 -0.0026141558     1     6     4     9
 -0.0077678083     1     6     5     5
 -0.3152234236     1     6     6     1
 -0.0014484215     1     6     6     2
 0.0032417897     1     6     6     4
 0.0008444913     1     6     6     9
 0.0035530378     1     6     7     3
 -0.0011622967     1     6     7     7
 -0.0010015851     1     6     7     8
 0.0016997576     1     6     8     3
 -0.0003702580     1     6     8     7
 -0.0003207838     1     6     8     8
 0.0074394174     1     6     9     1
 0.0014752959     1     6     9     2
 -0.0041406625     1     6     9     4
 -0.0017554184     1     6     9     9
 0.0021256214     1     7     2     3
 0.0003035900     1     7     2     8
 0.1292908582     1     7     3     1
 0.0102643759     1     7     3     2
 -0.0017007495     1     7     3     4
 -0.0016531719     1     7     3     6
 -0.0002985148     1     7     3     9
 0.0010111402     1     7     4     3
 0.0011962929     1     7     4     8
 0.0018624047     1     7     6     3
 -0.0006309539     1     7     6     8
 -0.2836093395     1     7     7     1
 -0.0034407688     1     7     7     2
 0.0021007953     1     7     7     4
 0.0011622967     1     7     7     6
 0.0007966758     1     7     7     9
 -0.0650436079     1     7     8     1
 -0.0023765901     1     7     8     2
 0.0021665546     1     7     8     4
 0.0003702580     1     7     8     6
 0.0001321171     1     7     8     9
 0.0009104394     1     7     9     3
 -0.0002558468     1     7     9     8
 0.0024321019     1     8     2     3
 -0.0003035900     1     8     2     7
 0.0669066349     1     8     3     1
 0.0084396870     1     8     3     2
 0.0022698249     1     8     3     4
 -0.0021396516     1     8     3     6
 0.0009415925     1     8     3     9
 0.0040605800     1     8     4     3
 -0.0011962929     1     8     4     7
 -0.0004321507     1     8     6     3
 0.0006309539     1     8     6     7
 -0.0650436079     1     8     7     1
 -0.0027046871     1     8     7     2
 0.0009466551     1     8     7     4
 0.0010015851     1     8     7     6
 0.0003859480     1     8     7     9
 -0.3887835251     1     8     8     1
 -0.0019879074     1     8     8     2
 0.0012756845     1     8     8     4
 0.0003207838     1     8     8     6
 -0.0000412776     1     8     8     9
 -0.0000305440     1     8     9     3
 0.0002558468     1     8     9     7
 0.0307717828     1     9     2     1
 -0.0031531674     1     9     2     2
 -0.0023070299     1     9     2     4
 0.0006552854     1     9     2     6
 -0.0028428565     1     9     3     3
 0.0002985148     1     9     3     7
 -0.0009415925     1     9     3     8
 -0.1469201739     1     9     4     1
 -0.0111440799     1     9     4     2
 -0.0009354115     1     9     4     4
 0.0026141558     1     9     4     6
 -0.0075014080     1     9     5     5
 0.0074394174     1     9     6     1
 0.0021299181     1     9     6     2
 -0.0014783946     1     9     6     4
 -0.0008444913     1     9     6     6
 0.0011829292     1     9     7     3
 -0.0007966758     1     9     7     7
 -0.0003859480     1     9     7     8
 -0.0010661501     1     9     8     3
 -0.0001321171     1     9     8     7
 0.0000412776     1     9     8     8
 -0.3820807138     1     9     9     1
 -0.0040297033     1     9     9     2
 -0.0009271222     1     9     9     4
 0.0017554184     1     9     9     6
 -0.9851694502     2     1     1     2
 0.0678628645     2     1     1     4
 0.1133742593     2     1     1     6
 0.0307717828     2     1     1     9
 0.0309549886     2     1     3     3
 -0.0073780987     2     1     3     7
 -0.0054942374     2     1     3     8
 0.0069738649     2     1     4     2
 0.0357960607     2     1     4     4
 -0.0055047539     2     1     4     6
 0.0080154749     2     1     4     9
 0.0404218074     2     1     5     5
 -0.0008822393     2     1     6     2
 -0.0059507360     2     1     6     4
 0.0014484215     2     1     6     6
 -0.0014752959     2     1     6     9
 -0.0102643759     2     1     7     3
 0.0034407688     2     1     7     7
 0.0023765901     2     1     7     8
 -0.0084396870     2     1     8     3
 0.0027046871     2     1     8     7
 0.0019879074     2     1     8     8
 0.0031531674     2     1     9     2
 0.0111440799     2     1     9     4
 -0.0021299181     2     1     9     6
 0.0040297033     2     1     9     9
 0.9851694502     2     2     1     1
 -0.0069738649     2     2     1     4
 0.0008822393     2     2     1     6
 -0.0031531674     2     2     1     9
 0.5287654042     2     2     3     3
 -0.0539819661     2     2     3     7
 -0.0112606732     2     2     3     8
 -0.0069738649     2     2     4     1
 0.5509361005     2     2     4     4
 -0.0240480675     2     2     4     6
 0.0603075707     2     2     4     9
 0.5762638071     2     2     5     5
 0.0008822393     2     2     6     1
 -0.0240480675     2     2     6     4
 0.2806218789     2     2     6     6
 -0.0079287266     2     2     6     9
 -0.0539819661     2     2     7     3
 0.2556362081     2     2     7     7
 0.0429131496     2     2     7     8
 -0.0112606732     2     2     8     3
 0.0429131496     2     2     8     7
 0.3578891340     2     2     8     8
 -0.0031531674     2     2     9     1
 0.0603075707     2     2     9     4
 -0.0079287266     2     2     9     6
 0.3321818812     2     2     9     9
 0.0021256214     2     3     1     7
 0.0024321019     2     3     1     8
 -0.0309549886     2     3     3     1
 -0.5287654042     2     3     3     2
 0.0022280320     2     3     3     4
 0.0534644416     2     3     3     6
 0.0198283321     2     3     3     9
 0.0079090226     2     3     4     7
 0.0270939568     2     3     4     8
 0.0297673976     2     3     6     7
 -0.0003828798     2     3     6     8
 0.0102643759     2     3     7     1
 0.0539819661     2     3     7     2
 0.0015625629     2     3     7     4
 0.0199151017     2     3     7     6
 0.0016833592     2     3     7     9
 0.0084396870     2     3     8     1
 0.0112606732     2     3     8     2
 0.0045695316     2     3     8     4
 -0.0016257921     2     3     8     6
 -0.0149951092     2     3     8     9
 0.0055588562     2     3     9     7
 -0.0118624319     2     3     9     8
 -0.0678628645     2     4     1     1
 0.0069738649     2     4     1     2
 -0.0000997555     2     4     1     6
 -0.0023070299     2     4     1     9
 -0.0022280320     2     4     3     3
 0.0065035605     2     4     3     7
 0.0225627513     2     4     3     8
 -0.0357960607     2     4     4     1
 -0.5509361005     2     4     4     2
 0.0526967054     2     4     4     6
 0.0056852248     2     4     4     9
 -0.0045725229     2     4     5     5
 0.0059507360     2     4     6     1
 0.0240480675     2     4     6     2
 0.0099452852     2     4     6     6
 -0.0195841264     2     4     6     9
 -0.0015625629     2     4     7     3
 0.0113233703     2     4     7     7
 0.0055392289     2     4     7     8
 -0.0045695316     2     4     8     3
 0.0095866077     2     4     8     7
 -0.0008219884     2     4     8     8
 -0.0111440799     2     4     9     1
 -0.0603075707     2     4     9     2
 -0.0082638807     2     4     9     6
 -0.0102718936     2     4     9     9
 -0.0404218074     2     5     5     1
 -0.5762638071     2     5     5     2
 0.0045725229     2     5     5     4
 0.0523007891     2     5     5     6
 -0.0011414327     2     5     5     9
 -0.1133742593     2     6     1     1
 -0.0008822393     2     6     1     2
 0.0000997555     2     6     1     4
 0.0006552854     2     6     1     9
 -0.0534644416     2     6     3     3
 0.0091965111     2     6     3     7
 0.0003924992     2     6     3     8
 0.0055047539     2     6     4     1
 0.0240480675     2     6     4     2
 -0.0526967054     2     6     4     4
 -0.0103417875     2     6     4     9
 -0.0523007891     2     6     5     5
 -0.0014484215     2     6     6     1
 -0.2806218789     2     6     6     2
 -0.0099452852     2     6     6     4
 0.0016488628     2     6     6     9
 -0.0199151017     2     6     7     3
 -0.0053358274     2     6     7     7
 -0.0075642747     2     6     7     8
 0.0016257921     2     6     8     3
 -0.0042565696     2     6     8     7
 -0.0173873112     2     6     8     8
 0.0021299181     2     6     9     1
 0.0079287266     2     6     9     2
 0.0082638807     2     6     9     4
 -0.0131851106     2     6     9     9
 -0.0021256214     2     7     1     3
 -0.0003035900     2     7     1     8
 0.0073780987     2     7     3     1
 0.0539819661     2     7     3     2
 -0.0065035605     2     7     3     4
 -0.0091965111     2     7     3     6
 -0.0033983612     2     7     3     9
 -0.0079090226     2     7     4     3
 -0.0036200984     2     7     4     8
 -0.0297673976     2     7     6     3
 -0.0033353942     2     7     6     8
 -0.0034407688     2     7     7     1
 -0.2556362081     2     7     7     2
 -0.0113233703     2     7     7     4
 0.0053358274     2     7     7     6
 -0.0006425756     2     7     7     9
 -0.0027046871     2     7     8     1
 -0.0429131496     2     7     8     2
 -0.0095866077     2     7     8     4
 0.0042565696     2     7     8     6
 0.0014380832     2     7     8     9
 -0.0055588562     2     7     9     3
 0.0017724572     2     7     9     8
 -0.0024321019     2     8     1     3
 0.0003035900     2     8     1     7
 0.0054942374     2     8     3     1
 0.0112606732     2     8     3     2
 -0.0225627513     2     8     3     4
 -0.0003924992     2     8     3     6
 -0.0022782991     2     8     3     9
 -0.0270939568     2     8     4     3
 0.0036200984     2     8     4     7
 0.0003828798     2     8     6     3
 0.0033353942     2     8     6     7
 -0.0023765901     2     8     7     1
 -0.0429131496     2     8     7     2
 -0.0055392289     2     8     7     4
 0.0075642747     2     8     7     6
 -0.0004195238     2     8     7     9
 -0.0019879074     2     8     8     1
 -0.3578891340     2     8     8     2
 0.0008219884     2     8     8     4
 0.0173873112     2     8     8     6
 0.0014900771     2     8     8     9
 0.0118624319     2     8     9     3
 -0.0017724572     2     8     9     7
 -0.0307717828     2     9     1     1
 0.0031531674     2     9     1     2
 0.0023070299     2     9     1     4
 -0.0006552854     2     9     1     6
 -0.0198283321     2     9     3     3
 0.0033983612     2     9     3     7
 0.0022782991     2     9     3     8
 -0.0080154749     2     9     4     1
 -0.0603075707     2     9     4     2
 -0.0056852248     2     9     4     4
 0.0103417875     2     9     4     6
 0.0011414327     2     9     5     5
 0.0014752959     2     9     6     1
 0.0079287266     2     9     6     2
 0.0195841264     2     9     6     4
 -0.0016488628     2     9     6     6
 -0.0016833592     2     9     7     3
 0.0006425756     2     9     7     7
 0.0004195238     2     9     7     8
 0.0149951092     2     9     8     3
 -0.0014380832     2     9     8     7
 -0.0014900771     2     9     8     8
 -0.0040297033     2     9     9     1
 -0.3321818812     2     9     9     2
 0.0102718936     2     9     9     4
 0.0131851106     2     9     9     6
 -0.8717346244     3     1     1     3
 0.1292908582     3     1     1     7
 0.0669066349     3     1     1     8
 -0.0309549886     3     1     2     3
 0.0073780987     3     1     2     7
 0.0054942374     3     1     2     8
 0.0106070749     3     1     4     3
 -0.0025519192     3     1     4     7
 -0.0017271897     3     1     4     8
 0.0041593930     3     1     6     3
 -0.0035530378     3     1     6     7
 -0.0016997576     3     1     6     8
 -0.0021256214     3     1     7     2
 -0.0010111402     3     1     7     4
 -0.0018624047     3     1     7     6
 -0.0009104394     3     1     7     9
 -0.0024321019     3     1     8     2
 -0.0040605800     3     1     8     4
 0.0004321507     3     1     8     6
 0.0000305440     3     1     8     9
 0.0028428565     3     1     9     3
 -0.0011829292     3     1     9     7
 0.0010661501     3     1     9     8
 -0.0309549886     3     2     1     3
 0.0102643759     3     2     1     7
 0.0084396870     3     2     1     8
 -0.5287654042     3     2     2     3
 0.0539819661     3     2     2     7
 0.0112606732     3     2     2     8
 0.0022280320     3     2     4     3
 0.0015625629     3     2     4     7
 0.0045695316     3     2     4     8
 0.0534644416     3     2     6     3
 0.0199151017     3     2     6     7
 -0.0016257921     3     2     6     8
 0.0021256214     3     2     7     1
 0.0079090226     3     2     7     4
 0.0297673976     3     2     7     6
 0.0055588562     3     2     7     9
 0.0024321019     3     2     8     1
 0.0270939568     3     2     8     4
 -0.0003828798     3     2     8     6
 -0.0118624319     3     2     8     9
 0.0198283321     3     2     9     3
 0.0016833592     3     2     9     7
 -0.0149951092     3     2     9     8
 0.8717346244     3     3     1     1
 0.0309549886     3     3     1     2
 -0.0106070749     3     3     1     4
 -0.0041593930     3     3     1     6
 -0.0028428565     3     3     1     9
 0.0309549886     3     3     2     1
 0.5287654042     3     3     2     2
 -0.0022280320     3     3     2     4
 -0.0534644416     3     3     2     6
 -0.0198283321     3     3     2     9
 -0.0106070749     3     3     4     1
 -0.0022280320     3     3     4     2
 0.5614621064     3     3     4     4
 -0.0268230467     3     3     4     6
 0.0608195854     3     3     4     9
 0.5826710515     3     3     5     5
 -0.0041593930     3     3     6     1
 -0.0534644416     3     3     6     2
 -0.0268230467     3     3     6     4
 0.2838233049     3     3     6     6
 -0.0071555749     3     3     6     9
 0.2462255429     3     3     7     7
 0.0338074572     3     3     7     8
 0.0338074572     3     3     8     7
 0.3402857594     3     3     8     8
 -0.0028428565     3     3     9     1
 -0.0198283321     3     3     9     2
 0.0608195854     3     3     9     4
 -0.0071555749     3     3     9     6
 0.3214292336     3     3     9     9
 0.0106070749     3     4     1     3
 -0.0017007495     3     4     1     7
 0.0022698249     3     4     1     8
 0.0022280320     3     4     2     3
 -0.0065035605     3     4     2     7
 -0.0225627513     3     4     2     8
 -0.5614621064     3     4     4     3
 0.0655998140     3     4     4     7
 0.0304277885     3     4     4     8
 0.0268230467     3     4     6     3
 0.0010106026     3     4     6     7
 -0.0007506607     3     4     6     8
 0.0010111402     3     4     7     1
 -0.0079090226     3     4     7     2
 0.0068497774     3     4     7     6
 -0.0035470532     3     4     7     9
 0.0040605800     3     4     8     1
 -0.0270939568     3     4     8     2
 0.0013524291     3     4     8     6
 -0.0063964960     3     4     8     9
 -0.0608195854     3     4     9     3
 0.0129508195     3     4     9     7
 0.0098127268     3     4     9     8
 -0.5826710515     3     5     5     3
 0.0686784449     3     5     5     7
 0.0239316168     3     5     5     8
 0.0041593930     3     6     1     3
 -0.0016531719     3     6     1     7
 -0.0021396516     3     6     1     8
 0.0534644416     3     6     2     3
 -0.0091965111     3     6     2     7
 -0.0003924992     3     6     2     8
 0.0268230467     3     6     4     3
 -0.0054664820     3     6     4     7
 -0.0014132478     3     6     4     8
 -0.2838233049     3     6     6     3
 0.0204144598     3     6     6     7
 -0.0103324595     3     6     6     8
 0.0018624047     3     6     7     1
 -0.0297673976     3     6     7     2
 -0.0068497774     3     6     7     4
 -0.0090021668     3     6     7     9
 -0.0004321507     3     6     8     1
 0.0003828798     3     6     8     2
 -0.0013524291     3     6     8     4
 -0.0044212049     3     6     8     9
 0.0071555749     3     6     9     3
 0.0034924337     3     6     9     7
 0.0066864446     3     6     9     8
 -0.1292908582     3     7     1     1
 -0.0102643759     3     7     1     2
 0.0017007495     3     7     1     4
 0.0016531719     3     7     1     6
 0.0002985148     3     7     1     9
 -0.0073780987     3     7     2     1
 -0.0539819661     3     7     2     2
 0.0065035605     3     7     2     4
 0.0091965111     3     7     2     6
 0.0033983612     3     7     2     9
 0.0025519192     3     7     4     1
 -0.0015625629     3     7     4     2
 -0.0655998140     3     7     4     4
 0.0054664820     3     7     4     6
 -0.0150964390     3     7     4     9
 -0.0686784449     3     7     5     5
 0.0035530378     3     7     6     1
 -0.0199151017     3     7     6     2
 -0.0010106026     3     7     6     4
 -0.0204144598     3     7     6     6
 -0.0124052277     3     7     6     9
 -0.2462255429     3     7     7     3
 -0.0126766192     3     7     7     8
 -0.0338074572     3     7     8     3
 -0.0237979123     3     7     8     8
 0.0011829292     3     7     9     1
 -0.0016833592     3     7     9     2
 -0.0129508195     3     7     9     4
 -0.0034924337     3     7     9     6
 -0.0210573714     3     7     9     9
 -0.0669066349     3     8     1     1
 -0.0084396870     3     8     1     2
 -0.0022698249     3     8     1     4
 0.0021396516     3     8     1     6
 -0.0009415925     3     8     1     9
 -0.0054942374     3     8     2     1
 -0.0112606732     3     8     2     2
 0.0225627513     3     8     2     4
 0.0003924992     3     8     2     6
 0.0022782991     3     8     2     9
 0.0017271897     3     8     4     1
 -0.0045695316     3     8     4     2
 -0.0304277885     3     8     4     4
 0.0014132478     3     8     4     6
 -0.0142636812     3     8     4     9
 -0.0239316168     3     8     5     5
 0.0016997576     3     8     6     1
 0.0016257921     3     8     6     2
 0.0007506607     3     8     6     4
 0.0103324595     3     8     6     6
 -0.0109992573     3     8     6     9
 -0.0338074572     3     8     7     3
 0.0126766192     3     8     7     7
 -0.3402857594     3     8     8     3
 0.0237979123     3     8     8     7
 -0.0010661501     3     8     9     1
 0.0149951092     3     8     9     2
 -0.0098127268     3     8     9     4
 -0.0066864446     3     8     9     6
 -0.0035797246     3     8     9     9
 0.0028428565     3     9     1     3
 -0.0002985148     3     9     1     7
 0.0009415925     3     9     1     8
 0.0198283321     3     9     2     3
 -0.0033983612     3     9     2     7
 -0.0022782991     3     9     2     8
 -0.0608195854     3     9     4     3
 0.0150964390     3     9     4     7
 0.0142636812     3     9     4     8
 0.0071555749     3     9     6     3
 0.0124052277     3     9     6     7
 0.0109992573     3     9     6     8
 0.0009104394     3     9     7     1
 -0.0055588562     3     9     7     2
 0.0035470532     3     9     7     4
 0.0090021668     3     9     7     6
 -0.0000305440     3     9     8     1
 0.0118624319     3     9     8     2
 0.0063964960     3     9     8     4
 0.0044212049     3     9     8     6
 -0.3214292336     3     9     9     3
 0.0210573714     3     9     9     7
 0.0035797246     3     9     9     8
 0.0678628645     4     1     1     2
 -0.9512757678     4     1     1     4
 0.0562517691     4     1     1     6
 -0.1469201739     4     1     1     9
 -0.0069738649     4     1     2     2
 -0.0357960607     4     1     2     4
 0.0055047539     4     1     2     6
 -0.0080154749     4     1     2     9
 -0.0106070749     4     1     3     3
 0.0025519192     4     1     3     7
 0.0017271897     4     1     3     8
 -0.0136694911     4     1     5     5
 0.0000997555     4     1     6     2
 0.0080210542     4     1     6     4
 -0.0032417897     4     1     6     6
 0.0041406625     4     1     6     9
 0.0017007495     4     1     7     3
 -0.0021007953     4     1     7     7
 -0.0021665546     4     1     7     8
 -0.0022698249     4     1     8     3
 -0.0009466551     4     1     8     7
 -0.0012756845     4     1     8     8
 0.0023070299     4     1     9     2
 0.0009354115     4     1     9     4
 0.0014783946     4     1     9     6
 0.0009271222     4     1     9     9
 -0.0678628645     4     2     1     1
 -0.0357960607     4     2     1     4
 0.0059507360     4     2     1     6
 -0.0111440799     4     2     1     9
 0.0069738649     4     2     2     1
 -0.5509361005     4     2     2     4
 0.0240480675     4     2     2     6
 -0.0603075707     4     2     2     9
 -0.0022280320     4     2     3     3
 -0.0015625629     4     2     3     7
 -0.0045695316     4     2     3     8
 -0.0045725229     4     2     5     5
 -0.0000997555     4     2     6     1
 0.0526967054     4     2     6     4
 0.0099452852     4     2     6     6
 -0.0082638807     4     2     6     9
 0.0065035605     4     2     7     3
 0.0113233703     4     2     7     7
 0.0095866077     4     2     7     8
 0.0225627513     4     2     8     3
 0.0055392289     4     2     8     7
 -0.0008219884     4     2     8     8
 -0.0023070299     4     2     9     1
 0.0056852248     4     2     9     4
 -0.0195841264     4     2     9     6
 -0.0102718936     4     2     9     9
 0.0010111402     4     3     1     7
 0.0040605800     4     3     1     8
 -0.0079090226     4     3     2     7
 -0.0270939568     4     3     2     8
 0.0106070749     4     3     3     1
 0.0022280320     4     3     3     2
 -0.5614621064     4     3     3     4
 0.0268230467     4     3     3     6
 -0.0608195854     4     3     3     9
 0.0068497774     4     3     6     7
 0.0013524291     4     3     6     8
 -0.0017007495     4     3     7     1
 -0.0065035605     4     3     7     2
 0.0655998140     4     3     7     4
 0.0010106026     4     3     7     6
 0.0129508195     4     3     7     9
 0.0022698249     4     3     8     1
 -0.0225627513     4     3     8     2
 0.0304277885     4     3     8     4
 -0.0007506607     4     3     8     6
 0.0098127268     4     3     8     9
 -0.0035470532     4     3     9     7
 -0.0063964960     4     3     9     8
 0.9512757678     4     4     1     1
 0.0357960607     4     4     1     2
 -0.0080210542     4     4     1     6
 -0.0009354115     4     4     1     9
 0.0357960607     4     4     2     1
 0.5509361005     4     4     2     2
 -0.0526967054     4     4     2     6
 -0.0056852248     4     4     2     9
 0.5614621064     4     4     3     3
 -0.0655998140     4     4     3     7
 -0.0304277885     4     4     3     8
 0.6018280427     4     4     5     5
 -0.0080210542     4     4     6     1
 -0.0526967054     4     4     6     2
 0.2716257508     4     4     6     6
 0.0088314301     4     4     6     9
 -0.0655998140     4     4     7     3
 0.2468469284     4     4     7     7
 0.0360695922     4     4     7     8
 -0.0304277885     4     4     8     3
 0.0360695922     4     4     8     7
 0.3395441155     4     4     8     8
 -0.0009354115     4     4     9     1
 -0.0056852248     4     4     9     2
 0.0088314301     4     4     9     6
 0.3239508069     4     4     9     9
 0.0136694911     4     5     5     1
 0.0045725229     4     5     5     2
 -0.6018280427     4     5     5     4
 0.0317895032     4     5     5     6
 -0.0698253882     4     5     5     9
 -0.0562517691     4     6     1     1
 -0.0059507360     4     6     1     2
 0.0080210542     4     6     1     4
 0.0026141558     4     6     1     9
 -0.0055047539     4     6     2     1
 -0.0240480675     4     6     2     2
 0.0526967054     4     6     2     4
 0.0103417875     4     6     2     9
 -0.0268230467     4     6     3     3
 0.0054664820     4     6     3     7
 0.0014132478     4     6     3     8
 -0.0317895032     4     6     5     5
 0.0032417897     4     6     6     1
 -0.0099452852     4     6     6     2
 -0.2716257508     4     6     6     4
 -0.0170708151     4     6     6     9
 -0.0010106026     4     6     7     3
 -0.0047573888     4     6     7     7
 -0.0179890442     4     6     7     8
 0.0007506607     4     6     8     3
 0.0009175730     4     6     8     7
 -0.0075595661     4     6     8     8
 -0.0014783946     4     6     9     1
 0.0195841264     4     6     9     2
 -0.0088314301     4     6     9     4
 -0.0098927737     4     6     9     9
 -0.0010111402     4     7     1     3
 -0.0011962929     4     7     1     8
 0.0079090226     4     7     2     3
 0.0036200984     4     7     2     8
 -0.0025519192     4     7     3     1
 0.0015625629     4     7     3     2
 0.0655998140     4     7     3     4
 -0.0054664820     4     7     3     6
 0.0150964390     4     7     3     9
 -0.0068497774     4     7     6     3
 -0.0190124824     4     7     6     8
 0.0021007953     4     7     7     1
 -0.0113233703     4     7     7     2
 -0.2468469284     4     7     7     4
 0.0047573888     4     7     7     6
 -0.0102718549     4     7     7     9
 0.0009466551     4     7     8     1
 -0.0055392289     4     7     8     2
 -0.0360695922     4     7     8     4
 -0.0009175730     4     7     8     6
 -0.0087980156     4     7     8     9
 0.0035470532     4     7     9     3
 -0.0046914421     4     7     9     8
 -0.0040605800     4     8     1     3
 0.0011962929     4     8     1     7
 0.0270939568     4     8     2     3
 -0.0036200984     4     8     2     7
 -0.0017271897     4     8     3     1
 0.0045695316     4     8     3     2