&FCI NORB= 11,NELEC= 10,MS2=0,
 ORBSYM=1,1,1,1,1,1,1,1,1,1,1
 ISYM=1,
&END
 1.0026316944     1     1     2     2
 -0.0547702945     1     1     2     3
 0.0546636253     1     1     2     5
 -0.0773175011     1     1     2     6
 0.0907852952     1     1     2     7
 0.0151256173     1     1     2     8
 0.0600113490     1     1     2     9
 0.0371500486     1     1     2    10
 -0.0547702945     1     1     3     2
 0.9045104473     1     1     3     3
 -0.0695589734     1     1     3     5
 0.0648392671     1     1     3     6
 0.1110542017     1     1     3     7
 -0.0126633326     1     1     3     8
 -0.0109998353     1     1     3     9
 0.2161241429     1     1     3    10
 1.0123504140     1     1     4     4
 0.1869404726     1     1     4    11
 0.0546636253     1     1     5     2
 -0.0695589734     1     1     5     3
 0.7571413506     1     1     5     5
 0.2623105346     1     1     5     6
 0.0465776662     1     1     5     7
 -0.0599678136     1     1     5     8
 0.0407590990     1     1     5     9
 -0.0971341128     1     1     5    10
 -0.0773175011     1     1     6     2
 0.0648392671     1     1     6     3
 0.2623105346     1     1     6     5
 0.5012584379     1     1     6     6
 0.0292594427     1     1     6     7
 -0.1132737039     1     1     6     8
 0.0067152812     1     1     6     9
 -0.0335171837     1     1     6    10
 0.0907852952     1     1     7     2
 0.1110542017     1     1     7     3
 0.0465776662     1     1     7     5
 0.0292594427     1     1     7     6
 0.3116086824     1     1     7     7
 -0.0279669727     1     1     7     8
 0.0445576032     1     1     7     9
 0.1068238177     1     1     7    10
 0.0151256173     1     1     8     2
 -0.0126633326     1     1     8     3
 -0.0599678136     1     1     8     5
 -0.1132737039     1     1     8     6
 -0.0279669727     1     1     8     7
 0.2542049858     1     1     8     8
 -0.0096445374     1     1     8     9
 0.0121348176     1     1     8    10
 0.0600113490     1     1     9     2
 -0.0109998353     1     1     9     3
 0.0407590990     1     1     9     5
 0.0067152812     1     1     9     6
 0.0445576032     1     1     9     7
 -0.0096445374     1     1     9     8
 0.3466207802     1     1     9     9
 0.0235134763     1     1     9    10
 0.0371500486     1     1    10     2
 0.2161241429     1     1    10     3
 -0.0971341128     1     1    10     5
 -0.0335171837     1     1    10     6
 0.1068238177     1     1    10     7
 0.0121348176     1     1    10     8
 0.0235134763     1     1    10     9
 0.4990616294     1     1    10    10
 0.1869404726     1     1    11     4
 0.3849787557     1     1    11    11
 -1.0026316944     1     2     2     1
 -0.0062135341     1     2     2     3
 0.0007826622     1     2     2     5
 -0.0008254989     1     2     2     6
 -0.0018270972     1     2     2     7
 0.0002289157     1     2     2     8
 -0.0000787228     1     2     2     9
 -0.0047492782     1     2     2    10
 0.0547702945     1     2     3     1
 -0.0339900554     1     2     3     3
 0.0039927521     1     2     3     5
 -0.0031788668     1     2     3     6
 -0.0093671016     1     2     3     7
 0.0011001813     1     2     3     8
 -0.0015681747     1     2     3     9
 -0.0202370601     1     2     3    10
 -0.0431941203     1     2     4     4
 -0.0159396405     1     2     4    11
 -0.0546636253     1     2     5     1
 0.0034386351     1     2     5     3
 -0.0267227037     1     2     5     5
 -0.0168912338     1     2     5     6
 -0.0022479269     1     2     5     7
 0.0054181502     1     2     5     8
 -0.0025905998     1     2     5     9
 0.0078979461     1     2     5    10
 0.0773175011     1     2     6     1
 -0.0022085824     1     2     6     3
 -0.0146063024     1     2     6     5
 -0.0133182274     1     2     6     6
 -0.0031033267     1     2     6     7
 0.0042450303     1     2     6     8
 -0.0019343173     1     2     6     9
 0.0026349820     1     2     6    10
 -0.0907852952     1     2     7     1
 -0.0078859071     1     2     7     3
 -0.0017167663     1     2     7     5
 -0.0032142579     1     2     7     6
 -0.0030831983     1     2     7     7
 0.0010579869     1     2     7     8
 -0.0008367364     1     2     7     9
 -0.0051808242     1     2     7    10
 -0.0151256173     1     2     8     1
 0.0007254747     1     2     8     3
 0.0044755163     1     2     8     5
 0.0040542462     1     2     8     6
 0.0009737181     1     2     8     7
 -0.0014229513     1     2     8     8
 0.0007058084     1     2     8     9
 -0.0008524018     1     2     8    10
 -0.0600113490     1     2     9     1
 -0.0012304563     1     2     9     3
 -0.0019076022     1     2     9     5
 -0.0016791917     1     2     9     6
 -0.0007799960     1     2     9     7
 0.0006524872     1     2     9     8
 -0.0005049488     1     2     9     9
 0.0001663977     1     2     9    10
 -0.0371500486     1     2    10     1
 -0.0148664264     1     2    10     3
 0.0062153977     1     2    10     5
 0.0018964768     1     2    10     6
 -0.0043566593     1     2    10     7
 -0.0006533560     1     2    10     8
 0.0003047039     1     2    10     9
 -0.0126336203     1     2    10    10
 -0.0119735721     1     2    11     4
 -0.0060803672     1     2    11    11
 0.0547702945     1     3     2     1
 0.0062135341     1     3     2     2
 0.0005560605     1     3     2     5
 -0.0008357463     1     3     2     6
 -0.0008439633     1     3     2     7
 0.0003269750     1     3     2     8
 -0.0002348462     1     3     2     9
 -0.0041531961     1     3     2    10
 -0.9045104473     1     3     3     1
 0.0339900554     1     3     3     2
 0.0027225144     1     3     3     5
 -0.0036213753     1     3     3     6
 0.0047289229     1     3     3     7
 0.0009651634     1     3     3     8
 0.0004588934     1     3     3     9
 0.0014170188     1     3     3    10
 0.0118493483     1     3     4     4
 0.0047915264     1     3     4    11
 0.0695589734     1     3     5     1
 -0.0034386351     1     3     5     2
 0.0067251128     1     3     5     5
 0.0061717308     1     3     5     6
 0.0005683607     1     3     5     7
 -0.0026063423     1     3     5     8
 -0.0003707869     1     3     5     9
 -0.0016501110     1     3     5    10
 -0.0648392671     1     3     6     1
 0.0022085824     1     3     6     2
 0.0044846680     1     3     6     5
 0.0025924562     1     3     6     6
 0.0004400999     1     3     6     7
 -0.0011577236     1     3     6     8
 0.0005885245     1     3     6     9
 -0.0014849176     1     3     6    10
 -0.1110542017     1     3     7     1
 0.0078859071     1     3     7     2
 0.0015264662     1     3     7     5
 -0.0010474131     1     3     7     6
 0.0039701957     1     3     7     7
 0.0001917574     1     3     7     8
 0.0009133973     1     3     7     9
 0.0027034871     1     3     7    10
 0.0126633326     1     3     8     1
 -0.0007254747     1     3     8     2
 -0.0014054106     1     3     8     5
 -0.0006397320     1     3     8     6
 -0.0001662795     1     3     8     7
 -0.0004322374     1     3     8     8
 0.0004049940     1     3     8     9
 -0.0001768824     1     3     8    10
 0.0109998353     1     3     9     1
 0.0012304563     1     3     9     2
 0.0003114148     1     3     9     5
 0.0008514585     1     3     9     6
 0.0011796601     1     3     9     7
 0.0002484434     1     3     9     8
 0.0002378739     1     3     9     9
 0.0039467304     1     3     9    10
 -0.2161241429     1     3    10     1
 0.0148664264     1     3    10     2
 0.0002554733     1     3    10     5
 -0.0040599391     1     3    10     6
 0.0051368489     1     3    10     7
 0.0007236614     1     3    10     8
 0.0041399584     1     3    10     9
 0.0049334471     1     3    10    10
 0.0032267729     1     3    11     4
 0.0005414368     1     3    11    11
 -0.0030095186     1     4     2    11
 0.0014217945     1     4     3    11
 -1.0123504140     1     4     4     1
 0.0431941203     1     4     4     2
 -0.0118493483     1     4     4     3
 0.0049741842     1     4     4     5
 -0.0066219603     1     4     4     6
 0.0050333185     1     4     4     7
 0.0020542685     1     4     4     8
 0.0067751188     1     4     4     9
 0.0003086460     1     4     4    10
 0.0012790242     1     4     5    11
 -0.0003016810     1     4     6    11
 0.0010354598     1     4     7    11
 -0.0006815336     1     4     8    11
 -0.0003714569     1     4     9    11
 -0.0005023526     1     4    10    11
 -0.1869404726     1     4    11     1
 0.0119735721     1     4    11     2
 -0.0032267729     1     4    11     3
 0.0020469759     1     4    11     5
 -0.0035350669     1     4    11     6
 0.0026549653     1     4    11     7
 0.0003481244     1     4    11     8
 0.0020713771     1     4    11     9
 -0.0003721838     1     4    11    10
 -0.0546636253     1     5     2     1
 -0.0007826622     1     5     2     2
 -0.0005560605     1     5     2     3
 -0.0011992014     1     5     2     6
 -0.0004291746     1     5     2     7
 0.0006118791     1     5     2     8
 -0.0005332436     1     5     2     9
 0.0011432062     1     5     2    10
 0.0695589734     1     5     3     1
 -0.0039927521     1     5     3     2
 -0.0027225144     1     5     3     3
 0.0014647752     1     5     3     6
 -0.0010537366     1     5     3     7
 -0.0011103885     1     5     3     8
 -0.0006313771     1     5     3     9
 -0.0019591758     1     5     3    10
 -0.0049741842     1     5     4     4
 -0.0009717331     1     5     4    11
 -0.7571413506     1     5     5     1
 0.0267227037     1     5     5     2
 -0.0067251128     1     5     5     3
 -0.0031974873     1     5     5     6
 0.0034387501     1     5     5     7
 -0.0001374336     1     5     5     8
 0.0043494597     1     5     5     9
 0.0014183290     1     5     5    10
 -0.2623105346     1     5     6     1
 0.0146063024     1     5     6     2
 -0.0044846680     1     5     6     3
 -0.0060503893     1     5     6     6
 0.0013102962     1     5     6     7
 0.0014614459     1     5     6     8
 0.0023717933     1     5     6     9
 0.0009380624     1     5     6    10
 -0.0465776662     1     5     7     1
 0.0017167663     1     5     7     2
 -0.0015264662     1     5     7     3
 -0.0007836620     1     5     7     6
 -0.0002018786     1     5     7     7
 0.0002848578     1     5     7     8
 0.0004337596     1     5     7     9
 -0.0012341430     1     5     7    10
 0.0599678136     1     5     8     1
 -0.0044755163     1     5     8     2
 0.0014054106     1     5     8     3
 0.0023891450     1     5     8     6
 -0.0000554648     1     5     8     7
 -0.0022140570     1     5     8     8
 -0.0009517729     1     5     8     9
 0.0002119247     1     5     8    10
 -0.0407590990     1     5     9     1
 0.0019076022     1     5     9     2
 -0.0003114148     1     5     9     3
 -0.0006492787     1     5     9     6
 0.0005495286     1     5     9     7
 -0.0001218038     1     5     9     8
 -0.0008442249     1     5     9     9
 0.0006881461     1     5     9    10
 0.0971341128     1     5    10     1
 -0.0062153977     1     5    10     2
 -0.0002554733     1     5    10     3
 0.0017042862     1     5    10     6
 -0.0023060037     1     5    10     7
 -0.0001262334     1     5    10     8
 -0.0010825731     1     5    10     9
 -0.0013214059     1     5    10    10
 -0.0020469759     1     5    11     4
 -0.0030708813     1     5    11    11
 0.0773175011     1     6     2     1
 0.0008254989     1     6     2     2
 0.0008357463     1     6     2     3
 0.0011992014     1     6     2     5
 0.0001269932     1     6     2     7
 0.0001693793     1     6     2     8
 -0.0002339878     1     6     2     9
 0.0007288627     1     6     2    10
 -0.0648392671     1     6     3     1
 0.0031788668     1     6     3     2
 0.0036213753     1     6     3     3
 -0.0014647752     1     6     3     5
 0.0014793046     1     6     3     7
 -0.0005214104     1     6     3     8
 -0.0002615544     1     6     3     9
 0.0025271820     1     6     3    10
 0.0066219603     1     6     4     4
 0.0032345859     1     6     4    11
 -0.2623105346     1     6     5     1
 0.0168912338     1     6     5     2
 -0.0061717308     1     6     5     3
 0.0031974873     1     6     5     5
 0.0021231733     1     6     5     7
 -0.0009639442     1     6     5     8
 0.0030763816     1     6     5     9
 -0.0007833794     1     6     5    10
 -0.5012584379     1     6     6     1
 0.0133182274     1     6     6     2
 -0.0025924562     1     6     6     3
 0.0060503893     1     6     6     5
 0.0022154710     1     6     6     7
 -0.0003897877     1     6     6     8
 0.0025282502     1     6     6     9
 -0.0001673785     1     6     6    10
 -0.0292594427     1     6     7     1
 0.0032142579     1     6     7     2
 0.0010474131     1     6     7     3
 0.0007836620     1     6     7     5
 0.0013743988     1     6     7     7
 -0.0000060009     1     6     7     8
 0.0006892272     1     6     7     9
 0.0009297808     1     6     7    10
 0.1132737039     1     6     8     1
 -0.0040542462     1     6     8     2
 0.0006397320     1     6     8     3
 -0.0023891450     1     6     8     5
 -0.0005524337     1     6     8     7
 -0.0010905107     1     6     8     8
 -0.0008957984     1     6     8     9
 0.0003277507     1     6     8    10
 -0.0067152812     1     6     9     1
 0.0016791917     1     6     9     2
 -0.0008514585     1     6     9     3
 0.0006492787     1     6     9     5
 0.0004888147     1     6     9     7
 -0.0001518522     1     6     9     8
 -0.0005050186     1     6     9     9
 0.0005996862     1     6     9    10
 0.0335171837     1     6    10     1
 -0.0018964768     1     6    10     2
 0.0040599391     1     6    10     3
 -0.0017042862     1     6    10     5
 0.0004029414     1     6    10     7
 0.0001954667     1     6    10     8
 -0.0000596367     1     6    10     9
 0.0030502445     1     6    10    10
 0.0035350669     1     6    11     4
 -0.0001750949     1     6    11    11
 -0.0907852952     1     7     2     1
 0.0018270972     1     7     2     2
 0.0008439633     1     7     2     3
 0.0004291746     1     7     2     5
 -0.0001269932     1     7     2     6
 0.0000785121     1     7     2     8
 -0.0000469468     1     7     2     9
 -0.0008083024     1     7     2    10
 -0.1110542017     1     7     3     1
 0.0093671016     1     7     3     2
 -0.0047289229     1     7     3     3
 0.0010537366     1     7     3     5
 -0.0014793046     1     7     3     6
 0.0003580181     1     7     3     8
 -0.0002663425     1     7     3     9
 -0.0024401289     1     7     3    10
 -0.0050333185     1     7     4     4
 -0.0016087972     1     7     4    11
 -0.0465776662     1     7     5     1
 0.0022479269     1     7     5     2
 -0.0005683607     1     7     5     3
 -0.0034387501     1     7     5     5
 -0.0021231733     1     7     5     6
 0.0003517617     1     7     5     8
 -0.0000908575     1     7     5     9
 0.0010503171     1     7     5    10
 -0.0292594427     1     7     6     1
 0.0031033267     1     7     6     2
 -0.0004400999     1     7     6     3
 -0.0013102962     1     7     6     5
 -0.0022154710     1     7     6     6
 0.0005470654     1     7     6     8
 0.0002024183     1     7     6     9
 0.0005276792     1     7     6    10
 -0.3116086824     1     7     7     1
 0.0030831983     1     7     7     2
 -0.0039701957     1     7     7     3
 0.0002018786     1     7     7     5
 -0.0013743988     1     7     7     6
 0.0004006099     1     7     7     8
 0.0001233147     1     7     7     9
 -0.0015009561     1     7     7    10
 0.0279669727     1     7     8     1
 -0.0009737181     1     7     8     2
 0.0001662795     1     7     8     3
 0.0000554648     1     7     8     5
 0.0005524337     1     7     8     6
 -0.0005604303     1     7     8     8
 0.0000702085     1     7     8     9
 -0.0002073349     1     7     8    10
 -0.0445576032     1     7     9     1
 0.0007799960     1     7     9     2
 -0.0011796601     1     7     9     3
 -0.0005495286     1     7     9     5
 -0.0004888147     1     7     9     6
 0.0002857882     1     7     9     8
 -0.0001524678     1     7     9     9
 0.0008627294     1     7     9    10
 -0.1068238177     1     7    10     1
 0.0043566593     1     7    10     2
 -0.0051368489     1     7    10     3
 0.0023060037     1     7    10     5
 -0.0004029414     1     7    10     6
 -0.0000048335     1     7    10     8
 0.0012070449     1     7    10     9
 -0.0023663076     1     7    10    10
 -0.0026549653     1     7    11     4
 -0.0016999535     1     7    11    11
 -0.0151256173     1     8     2     1
 -0.0002289157     1     8     2     2
 -0.0003269750     1     8     2     3
 -0.0006118791     1     8     2     5
 -0.0001693793     1     8     2     6
 -0.0000785121     1     8     2     7
 0.0000523717     1     8     2     9
 -0.0001975227     1     8     2    10
 0.0126633326     1     8     3     1
 -0.0011001813     1     8     3     2
 -0.0009651634     1     8     3     3
 0.0011103885     1     8     3     5
 0.0005214104     1     8     3     6
 -0.0003580181     1     8     3     7
 0.0001472251     1     8     3     9
 -0.0008806885     1     8     3    10
 -0.0020542685     1     8     4     4
 -0.0010141239     1     8     4    11
 0.0599678136     1     8     5     1
 -0.0054181502     1     8     5     2
 0.0026063423     1     8     5     3
 0.0001374336     1     8     5     5
 0.0009639442     1     8     5     6
 -0.0003517617     1     8     5     7
 -0.0008522255     1     8     5     9
 0.0003488708     1     8     5    10
 0.1132737039     1     8     6     1
 -0.0042450303     1     8     6     2
 0.0011577236     1     8     6     3
 -0.0014614459     1     8     6     5
 0.0003897877     1     8     6     6
 -0.0005470654     1     8     6     7
 -0.0007432840     1     8     6     9
 0.0001319129     1     8     6    10
 0.0279669727     1     8     7     1
 -0.0010579869     1     8     7     2
 -0.0001917574     1     8     7     3
 -0.0002848578     1     8     7     5
 0.0000060009     1     8     7     6
 -0.0004006099     1     8     7     7
 -0.0002144350     1     8     7     9
 -0.0002029846     1     8     7    10
 -0.2542049858     1     8     8     1
 0.0014229513     1     8     8     2
 0.0004322374     1     8     8     3
 0.0022140570     1     8     8     5
 0.0010905107     1     8     8     6
 0.0005604303     1     8     8     7
 0.0004690516     1     8     8     9
 -0.0000568312     1     8     8    10
 0.0096445374     1     8     9     1
 -0.0006524872     1     8     9     2
 -0.0002484434     1     8     9     3
 0.0001218038     1     8     9     5
 0.0001518522     1     8     9     6
 -0.0002857882     1     8     9     7
 0.0001543346     1     8     9     9
 -0.0005909470     1     8     9    10
 -0.0121348176     1     8    10     1
 0.0006533560     1     8    10     2
 -0.0007236614     1     8    10     3
 0.0001262334     1     8    10     5
 -0.0001954667     1     8    10     6
 0.0000048335     1     8    10     7
 0.0000069110     1     8    10     9
 -0.0005136442     1     8    10    10
 -0.0003481244     1     8    11     4
 0.0003552138     1     8    11    11
 -0.0600113490     1     9     2     1
 0.0000787228     1     9     2     2
 0.0002348462     1     9     2     3
 0.0005332436     1     9     2     5
 0.0002339878     1     9     2     6
 0.0000469468     1     9     2     7
 -0.0000523717     1     9     2     8
 -0.0001490261     1     9     2    10
 0.0109998353     1     9     3     1
 0.0015681747     1     9     3     2
 -0.0004588934     1     9     3     3
 0.0006313771     1     9     3     5
 0.0002615544     1     9     3     6
 0.0002663425     1     9     3     7
 -0.0001472251     1     9     3     8
 -0.0002307853     1     9     3    10
 -0.0067751188     1     9     4     4
 -0.0024555867     1     9     4    11
 -0.0407590990     1     9     5     1
 0.0025905998     1     9     5     2
 0.0003707869     1     9     5     3
 -0.0043494597     1     9     5     5
 -0.0030763816     1     9     5     6
 0.0000908575     1     9     5     7
 0.0008522255     1     9     5     8
 0.0017307584     1     9     5    10
 -0.0067152812     1     9     6     1
 0.0019343173     1     9     6     2
 -0.0005885245     1     9     6     3
 -0.0023717933     1     9     6     5
 -0.0025282502     1     9     6     6
 -0.0002024183     1     9     6     7
 0.0007432840     1     9     6     8
 0.0006638636     1     9     6    10
 -0.0445576032     1     9     7     1
 0.0008367364     1     9     7     2
 -0.0009133973     1     9     7     3
 -0.0004337596     1     9     7     5
 -0.0006892272     1     9     7     6
 -0.0001233147     1     9     7     7
 0.0002144350     1     9     7     8
 -0.0003428435     1     9     7    10
 0.0096445374     1     9     8     1
 -0.0007058084     1     9     8     2
 -0.0004049940     1     9     8     3
 0.0009517729     1     9     8     5
 0.0008957984     1     9     8     6
 -0.0000702085     1     9     8     7
 -0.0004690516     1     9     8     8
 -0.0005985562     1     9     8    10
 -0.3466207802     1     9     9     1
 0.0005049488     1     9     9     2
 -0.0002378739     1     9     9     3
 0.0008442249     1     9     9     5
 0.0005050186     1     9     9     6
 0.0001524678     1     9     9     7
 -0.0001543346     1     9     9     8
 0.0000158933     1     9     9    10
 -0.0235134763     1     9    10     1
 -0.0003047039     1     9    10     2
 -0.0041399584     1     9    10     3
 0.0010825731     1     9    10     5
 0.0000596367     1     9    10     6
 -0.0012070449     1     9    10     7
 -0.0000069110     1     9    10     8
 -0.0027723692     1     9    10    10
 -0.0020713771     1     9    11     4
 -0.0011579329     1     9    11    11
 -0.0371500486     1    10     2     1
 0.0047492782     1    10     2     2
 0.0041531961     1    10     2     3
 -0.0011432062     1    10     2     5
 -0.0007288627     1    10     2     6
 0.0008083024     1    10     2     7
 0.0001975227     1    10     2     8
 0.0001490261     1    10     2     9
 -0.2161241429     1    10     3     1
 0.0202370601     1    10     3     2
 -0.0014170188     1    10     3     3
 0.0019591758     1    10     3     5
 -0.0025271820     1    10     3     6
 0.0024401289     1    10     3     7
 0.0008806885     1    10     3     8
 0.0002307853     1    10     3     9
 -0.0003086460     1    10     4     4
 -0.0000800561     1    10     4    11
 0.0971341128     1    10     5     1
 -0.0078979461     1    10     5     2
 0.0016501110     1    10     5     3
 -0.0014183290     1    10     5     5
 0.0007833794     1    10     5     6
 -0.0010503171     1    10     5     7
 -0.0003488708     1    10     5     8
 -0.0017307584     1    10     5     9
 0.0335171837     1    10     6     1
 -0.0026349820     1    10     6     2
 0.0014849176     1    10     6     3
 -0.0009380624     1    10     6     5
 0.0001673785     1    10     6     6
 -0.0005276792     1    10     6     7
 -0.0001319129     1    10     6     8
 -0.0006638636     1    10     6     9
 -0.1068238177     1    10     7     1
 0.0051808242     1    10     7     2
 -0.0027034871     1    10     7     3
 0.0012341430     1    10     7     5
 -0.0009297808     1    10     7     6
 0.0015009561     1    10     7     7
 0.0002029846     1    10     7     8
 0.0003428435     1    10     7     9
 -0.0121348176     1    10     8     1
 0.0008524018     1    10     8     2
 0.0001768824     1    10     8     3
 -0.0002119247     1    10     8     5
 -0.0003277507     1    10     8     6
 0.0002073349     1    10     8     7
 0.0000568312     1    10     8     8
 0.0005985562     1    10     8     9
 -0.0235134763     1    10     9     1
 -0.0001663977     1    10     9     2
 -0.0039467304     1    10     9     3
 -0.0006881461     1    10     9     5
 -0.0005996862     1    10     9     6
 -0.0008627294     1    10     9     7
 0.0005909470     1    10     9     8
 -0.0000158933     1    10     9     9
 -0.4990616294     1    10    10     1
 0.0126336203     1    10    10     2
 -0.0049334471     1    10    10     3
 0.0013214059     1    10    10     5
 -0.0030502445     1    10    10     6
 0.0023663076     1    10    10     7
 0.0005136442     1    10    10     8
 0.0027723692     1    10    10     9
 0.0003721838     1    10    11     4
 0.0000474061     1    10    11    11
 0.0030095186     1    11     2     4
 -0.0014217945     1    11     3     4
 -0.1869404726     1    11     4     1
 0.0159396405     1    11     4     2
 -0.0047915264     1    11     4     3
 0.0009717331     1    11     4     5
 -0.0032345859     1    11     4     6
 0.0016087972     1    11     4     7
 0.0010141239     1    11     4     8
 0.0024555867     1    11     4     9
 0.0000800561     1    11     4    10
 -0.0012790242     1    11     5     4
 0.0003016810     1    11     6     4
 -0.0010354598     1    11     7     4
 0.0006815336     1    11     8     4
 0.0003714569     1    11     9     4
 0.0005023526     1    11    10     4
 -0.3849787557     1    11    11     1
 0.0060803672     1    11    11     2
 -0.0005414368     1    11    11     3
 0.0030708813     1    11    11     5
 0.0001750949     1    11    11     6
 0.0016999535     1    11    11     7
 -0.0003552138     1    11    11     8
 0.0011579329     1    11    11     9
 -0.0000474061     1    11    11    10
 -1.0026316944     2     1     1     2
 0.0547702945     2     1     1     3
 -0.0546636253     2     1     1     5
 0.0773175011     2     1     1     6
 -0.0907852952     2     1     1     7
 -0.0151256173     2     1     1     8
 -0.0600113490     2     1     1     9
 -0.0371500486     2     1     1    10
 -0.0062135341     2     1     3     2
 -0.0339900554     2     1     3     3
 0.0034386351     2     1     3     5
 -0.0022085824     2     1     3     6
 -0.0078859071     2     1     3     7
 0.0007254747     2     1     3     8
 -0.0012304563     2     1     3     9
 -0.0148664264     2     1     3    10
 -0.0431941203     2     1     4     4
 -0.0119735721     2     1     4    11
 0.0007826622     2     1     5     2
 0.0039927521     2     1     5     3
 -0.0267227037     2     1     5     5
 -0.0146063024     2     1     5     6
 -0.0017167663     2     1     5     7
 0.0044755163     2     1     5     8
 -0.0019076022     2     1     5     9
 0.0062153977     2     1     5    10
 -0.0008254989     2     1     6     2
 -0.0031788668     2     1     6     3
 -0.0168912338     2     1     6     5
 -0.0133182274     2     1     6     6
 -0.0032142579     2     1     6     7
 0.0040542462     2     1     6     8
 -0.0016791917     2     1     6     9
 0.0018964768     2     1     6    10
 -0.0018270972     2     1     7     2
 -0.0093671016     2     1     7     3
 -0.0022479269     2     1     7     5
 -0.0031033267     2     1     7     6
 -0.0030831983     2     1     7     7
 0.0009737181     2     1     7     8
 -0.0007799960     2     1     7     9
 -0.0043566593     2     1     7    10
 0.0002289157     2     1     8     2
 0.0011001813     2     1     8     3
 0.0054181502     2     1     8     5
 0.0042450303     2     1     8     6
 0.0010579869     2     1     8     7
 -0.0014229513     2     1     8     8
 0.0006524872     2     1     8     9
 -0.0006533560     2     1     8    10
 -0.0000787228     2     1     9     2
 -0.0015681747     2     1     9     3
 -0.0025905998     2     1     9     5
 -0.0019343173     2     1     9     6
 -0.0008367364     2     1     9     7
 0.0007058084     2     1     9     8
 -0.0005049488     2     1     9     9
 0.0003047039     2     1     9    10
 -0.0047492782     2     1    10     2
 -0.0202370601     2     1    10     3
 0.0078979461     2     1    10     5
 0.0026349820     2     1    10     6
 -0.0051808242     2     1    10     7
 -0.0008524018     2     1    10     8
 0.0001663977     2     1    10     9
 -0.0126336203     2     1    10    10
 -0.0159396405     2     1    11     4
 -0.0060803672     2     1    11    11
 1.0026316944     2     2     1     1
 0.0062135341     2     2     1     3
 -0.0007826622     2     2     1     5
 0.0008254989     2     2     1     6
 0.0018270972     2     2     1     7
 -0.0002289157     2     2     1     8
 0.0000787228     2     2     1     9
 0.0047492782     2     2     1    10
 0.0062135341     2     2     3     1
 0.5352424133     2     2     3     3
 -0.0273521647     2     2     3     5
 0.0285315694     2     2     3     6
 0.0464479871     2     2     3     7
 -0.0024186843     2     2     3     8
 -0.0151676348     2     2     3     9
 0.0768543951     2     2     3    10
 0.5836580489     2     2     4     4
 0.0768486641     2     2     4    11
 -0.0007826622     2     2     5     1
 -0.0273521647     2     2     5     3
 0.4746755698     2     2     5     5
 0.1261534096     2     2     5     6
 0.0213829962     2     2     5     7
 -0.0202479324     2     2     5     8
 0.0148462114     2     2     5     9
 -0.0401421588     2     2     5    10
 0.0008254989     2     2     6     1
 0.0285315694     2     2     6     3
 0.1261534096     2     2     6     5
 0.3573153338     2     2     6     6
 0.0091671550     2     2     6     7
 -0.0701842525     2     2     6     8
 0.0010740122     2     2     6     9
 -0.0133889591     2     2     6    10
 0.0018270972     2     2     7     1
 0.0464479871     2     2     7     3
 0.0213829962     2     2     7     5
 0.0091671550     2     2     7     6
 0.2784510468     2     2     7     7
 -0.0199712485     2     2     7     8
 0.0267975817     2     2     7     9
 0.0668931646     2     2     7    10
 -0.0002289157     2     2     8     1
 -0.0024186843     2     2     8     3
 -0.0202479324     2     2     8     5