&FCI NORB= 16,NELEC= 10,MS2=0,
 ORBSYM=1,1,1,1,1,1,1,1,1,1,1,1,1,1,1,1
 ISYM=1,
&END
 0.9900305314     1     1     2     2
 -0.0163452849     1     1     2     3
 0.0762298972     1     1     2     4
 -0.1309327260     1     1     2     6
 0.0445028138     1     1     2     7
 0.0578738616     1     1     2     8
 0.0706816204     1     1     2     9
 0.0281465094     1     1     2    10
 0.0417511531     1     1     2    12
 -0.0757048433     1     1     2    13
 0.1395668415     1     1     2    16
 -0.0163452849     1     1     3     2
 0.8467481945     1     1     3     3
 -0.0569368570     1     1     3     4
 0.0651311290     1     1     3     6
 0.1597014674     1     1     3     7
 -0.0830622459     1     1     3     8
 0.0229315228     1     1     3     9
 0.1154454693     1     1     3    10
 -0.1038372373     1     1     3    12
 -0.1764488915     1     1     3    13
 -0.0465806496     1     1     3    16
 0.0762298972     1     1     4     2
 -0.0569368570     1     1     4     3
 0.8984731418     1     1     4     4
 0.1366276040     1     1     4     6
 0.0385141137     1     1     4     7
 -0.0971932082     1     1     4     8
 0.0452526243     1     1     4     9
 -0.2169421896     1     1     4    10
 -0.0729831005     1     1     4    12
 -0.0477749370     1     1     4    13
 0.0361133042     1     1     4    16
 1.0043112329     1     1     5     5
 0.2701896578     1     1     5    11
 -0.1387408066     1     1     5    14
 -0.0251660600     1     1     5    15
 -0.1309327260     1     1     6     2
 0.0651311290     1     1     6     3
 0.1366276040     1     1     6     4
 0.3705202790     1     1     6     6
 0.0224833554     1     1     6     7
 -0.1290928116     1     1     6     8
 -0.0254086432     1     1     6     9
 -0.0758391884     1     1     6    10
 -0.0829646148     1     1     6    12
 -0.0144606843     1     1     6    13
 -0.0806964252     1     1     6    16
 0.0445028138     1     1     7     2
 0.1597014674     1     1     7     3
 0.0385141137     1     1     7     4
 0.0224833554     1     1     7     6
 0.3072621561     1     1     7     7
 -0.0751708865     1     1     7     8
 0.0472186639     1     1     7     9
 0.0515701784     1     1     7    10
 -0.0633006791     1     1     7    12
 -0.1343513362     1     1     7    13
 0.0079881158     1     1     7    16
 0.0578738616     1     1     8     2
 -0.0830622459     1     1     8     3
 -0.0971932082     1     1     8     4
 -0.1290928116     1     1     8     6
 -0.0751708865     1     1     8     7
 0.3903301417     1     1     8     8
 -0.0113579698     1     1     8     9
 0.0255788987     1     1     8    10
 0.0462794869     1     1     8    12
 0.0453239521     1     1     8    13
 0.0253068600     1     1     8    16
 0.0706816204     1     1     9     2
 0.0229315228     1     1     9     3
 0.0452526243     1     1     9     4
 -0.0254086432     1     1     9     6
 0.0472186639     1     1     9     7
 -0.0113579698     1     1     9     8
 0.3711155879     1     1     9     9
 0.0142289044     1     1     9    10
 -0.0167145731     1     1     9    12
 -0.0436126095     1     1     9    13
 0.0193313539     1     1     9    16
 0.0281465094     1     1    10     2
 0.1154454693     1     1    10     3
 -0.2169421896     1     1    10     4
 -0.0758391884     1     1    10     6
 0.0515701784     1     1    10     7
 0.0255788987     1     1    10     8
 0.0142289044     1     1    10     9
 0.4701021595     1     1    10    10
 0.0222961826     1     1    10    12
 -0.0410750194     1     1    10    13
 -0.0202817734     1     1    10    16
 0.2701896578     1     1    11     5
 0.4950693503     1     1    11    11
 -0.0848251472     1     1    11    14
 -0.0152712809     1     1    11    15
 0.0417511531     1     1    12     2
 -0.1038372373     1     1    12     3
 -0.0729831005     1     1    12     4
 -0.0829646148     1     1    12     6
 -0.0633006791     1     1    12     7
 0.0462794869     1     1    12     8
 -0.0167145731     1     1    12     9
 0.0222961826     1     1    12    10
 0.3928741560     1     1    12    12
 0.0460535607     1     1    12    13
 0.0385127642     1     1    12    16
 -0.0757048433     1     1    13     2
 -0.1764488915     1     1    13     3
 -0.0477749370     1     1    13     4
 -0.0144606843     1     1    13     6
 -0.1343513362     1     1    13     7
 0.0453239521     1     1    13     8
 -0.0436126095     1     1    13     9
 -0.0410750194     1     1    13    10
 0.0460535607     1     1    13    12
 0.4404705399     1     1    13    13
 -0.0039420745     1     1    13    16
 -0.1387408066     1     1    14     5
 -0.0848251472     1     1    14    11
 0.3934887654     1     1    14    14
 -0.0036762590     1     1    14    15
 -0.0251660600     1     1    15     5
 -0.0152712809     1     1    15    11
 -0.0036762590     1     1    15    14
 0.3498792357     1     1    15    15
 0.1395668415     1     1    16     2
 -0.0465806496     1     1    16     3
 0.0361133042     1     1    16     4
 -0.0806964252     1     1    16     6
 0.0079881158     1     1    16     7
 0.0253068600     1     1    16     8
 0.0193313539     1     1    16     9
 -0.0202817734     1     1    16    10
 0.0385127642     1     1    16    12
 -0.0039420745     1     1    16    13
 0.4139716850     1     1    16    16
 -0.9900305314     1     2     2     1
 -0.0038105520     1     2     2     3
 0.0040292945     1     2     2     4
 0.0007419159     1     2     2     6
 -0.0012577071     1     2     2     7
 -0.0001569853     1     2     2     8
 -0.0001056875     1     2     2     9
 -0.0039009772     1     2     2    10
 0.0002227814     1     2     2    12
 0.0019533332     1     2     2    13
 0.0005561287     1     2     2    16
 0.0163452849     1     2     3     1
 -0.0301932087     1     2     3     3
 0.0035873701     1     2     3     4
 -0.0037489987     1     2     3     6
 -0.0115493248     1     2     3     7
 0.0072179311     1     2     3     8
 -0.0037734870     1     2     3     9
 -0.0104866747     1     2     3    10
 0.0085610573     1     2     3    12
 0.0160615373     1     2     3    13
 0.0037416493     1     2     3    16
 -0.0762298972     1     2     4     1
 0.0031450106     1     2     4     3
 -0.0333355506     1     2     4     4
 -0.0106169652     1     2     4     6
 -0.0019581447     1     2     4     7
 0.0088222122     1     2     4     8
 -0.0020137294     1     2     4     9
 0.0172330563     1     2     4    10
 0.0073963670     1     2     4    12
 0.0023641622     1     2     4    13
 -0.0005768806     1     2     4    16
 -0.0421155141     1     2     5     5
 -0.0221935776     1     2     5    11
 0.0119907480     1     2     5    14
 0.0015800577     1     2     5    15
 0.1309327260     1     2     6     1
 -0.0024848095     1     2     6     3
 -0.0094243707     1     2     6     4
 -0.0045688216     1     2     6     6
 -0.0024105826     1     2     6     7
 0.0043629621     1     2     6     8
 -0.0010355290     1     2     6     9
 0.0046653728     1     2     6    10
 0.0039439114     1     2     6    12
 0.0030692107     1     2     6    13
 0.0006835303     1     2     6    16
 -0.0445028138     1     2     7     1
 -0.0091512803     1     2     7     3
 -0.0013079012     1     2     7     4
 -0.0025056309     1     2     7     6
 -0.0044075745     1     2     7     7
 0.0035439274     1     2     7     8
 -0.0015187758     1     2     7     9
 -0.0022565453     1     2     7    10
 0.0038584381     1     2     7    12
 0.0063059335     1     2     7    13
 0.0013338650     1     2     7    16
 -0.0578738616     1     2     8     1
 0.0050653248     1     2     8     3
 0.0072488783     1     2     8     4
 0.0041604325     1     2     8     6
 0.0032846448     1     2     8     7
 -0.0044602027     1     2     8     8
 0.0014821832     1     2     8     9
 -0.0027462264     1     2     8    10
 -0.0041862846     1     2     8    12
 -0.0043974179     1     2     8    13
 -0.0009871060     1     2     8    16
 -0.0706816204     1     2     9     1
 -0.0027951255     1     2     9     3
 -0.0011531372     1     2     9     4
 -0.0008069151     1     2     9     6
 -0.0013829453     1     2     9     7
 0.0013331502     1     2     9     8
 -0.0005975256     1     2     9     9
 0.0000605071     1     2     9    10
 0.0010888361     1     2     9    12
 0.0017456490     1     2     9    13
 0.0001138034     1     2     9    16
 -0.0281465094     1     2    10     1
 -0.0076840792     1     2    10     3
 0.0135058369     1     2    10     4
 0.0037261791     1     2    10     6
 -0.0019073005     1     2    10     7
 -0.0023141711     1     2    10     8
 0.0003555106     1     2    10     9
 -0.0108417399     1     2    10    10
 -0.0009292791     1     2    10    12
 0.0027066021     1     2    10    13
 0.0015637359     1     2    10    16
 -0.0166963030     1     2    11     5
 -0.0111168597     1     2    11    11
 0.0058322973     1     2    11    14
 0.0009972290     1     2    11    15
 -0.0417511531     1     2    12     1
 0.0058960025     1     2    12     3
 0.0053301610     1     2    12     4
 0.0034697695     1     2    12     6
 0.0034311035     1     2    12     7
 -0.0039006748     1     2    12     8
 0.0011341766     1     2    12     9
 -0.0008533712     1     2    12    10
 -0.0038397819     1     2    12    12
 -0.0047303503     1     2    12    13
 -0.0008662783     1     2    12    16
 0.0757048433     1     2    13     1
 0.0116267615     1     2    13     3
 0.0013763266     1     2    13     4
 0.0029907715     1     2    13     6
 0.0057743569     1     2    13     7
 -0.0043860642     1     2    13     8
 0.0017361760     1     2    13     9
 0.0029181611     1     2    13    10
 -0.0048960365     1     2    13    12
 -0.0080150829     1     2    13    13
 -0.0016451585     1     2    13    16
 0.0087577235     1     2    14     5
 0.0056372622     1     2    14    11
 -0.0028323544     1     2    14    14
 -0.0007080926     1     2    14    15
 0.0015337931     1     2    15     5
 0.0012403732     1     2    15    11
 -0.0008531665     1     2    15    14
 -0.0000655871     1     2    15    15
 -0.1395668415     1     2    16     1
 0.0018703334     1     2    16     3
 0.0001759665     1     2    16     4
 0.0008141101     1     2    16     6
 0.0008872222     1     2    16     7
 -0.0009755962     1     2    16     8
 0.0000593392     1     2    16     9
 0.0007246558     1     2    16    10
 -0.0007841216     1     2    16    12
 -0.0011208340     1     2    16    13
 -0.0007449907     1     2    16    16
 0.0163452849     1     3     2     1
 0.0038105520     1     3     2     2
 0.0004490675     1     3     2     4
 -0.0010971667     1     3     2     6
 -0.0017419417     1     3     2     7
 0.0018103921     1     3     2     8
 -0.0007778473     1     3     2     9
 -0.0022549670     1     3     2    10
 0.0022130257     1     3     2    12
 0.0036029267     1     3     2    13
 0.0017297650     1     3     2    16
 -0.8467481945     1     3     3     1
 0.0301932087     1     3     3     2
 0.0071978977     1     3     3     4
 -0.0036802522     1     3     3     6
 0.0022967161     1     3     3     7
 0.0005761998     1     3     3     8
 0.0005712246     1     3     3     9
 -0.0017092304     1     3     3    10
 0.0017903442     1     3     3    12
 -0.0045848603     1     3     3    13
 0.0077906340     1     3     3    16
 0.0569368570     1     3     4     1
 -0.0031450106     1     3     4     2
 0.0038751494     1     3     4     4
 0.0031137389     1     3     4     6
 0.0013077853     1     3     4     7
 -0.0044677648     1     3     4     8
 0.0011766738     1     3     4     9
 -0.0013062257     1     3     4    10
 -0.0002311411     1     3     4    12
 -0.0012540851     1     3     4    13
 -0.0011064613     1     3     4    16
 0.0059635290     1     3     5     5
 0.0039200010     1     3     5    11
 0.0010308016     1     3     5    14
 -0.0017368772     1     3     5    15
 -0.0651311290     1     3     6     1
 0.0024848095     1     3     6     2
 0.0020045562     1     3     6     4
 -0.0005711151     1     3     6     6
 -0.0011653713     1     3     6     7
 -0.0002677566     1     3     6     8
 0.0007465514     1     3     6     9
 -0.0011088503     1     3     6    10
 0.0010180322     1     3     6    12
 0.0006005950     1     3     6    13
 0.0011256255     1     3     6    16
 -0.1597014674     1     3     7     1
 0.0091512803     1     3     7     2
 0.0026614990     1     3     7     4
 -0.0032755561     1     3     7     6
 0.0022628541     1     3     7     7
 0.0008066480     1     3     7     8
 0.0015882427     1     3     7     9
 0.0007176850     1     3     7    10
 0.0001981883     1     3     7    12
 -0.0024926675     1     3     7    13
 0.0031090730     1     3     7    16
 0.0830622459     1     3     8     1
 -0.0050653248     1     3     8     2
 -0.0023405411     1     3     8     4
 0.0014247714     1     3     8     6
 -0.0000820131     1     3     8     7
 -0.0019950086     1     3     8     8
 -0.0003164048     1     3     8     9
 -0.0006940512     1     3     8    10
 -0.0017221283     1     3     8    12
 0.0004473201     1     3     8    13
 -0.0026720933     1     3     8    16
 -0.0229315228     1     3     9     1
 0.0027951255     1     3     9     2
 0.0006474665     1     3     9     4
 -0.0002349211     1     3     9     6
 0.0016660185     1     3     9     7
 0.0001267861     1     3     9     8
 0.0008499597     1     3     9     9
 0.0030512630     1     3     9    10
 -0.0009294573     1     3     9    12
 -0.0040041053     1     3     9    13
 -0.0004867489     1     3     9    16
 -0.1154454693     1     3    10     1
 0.0076840792     1     3    10     2
 0.0001934722     1     3    10     4
 -0.0032328535     1     3    10     6
 0.0013077138     1     3    10     7
 0.0012714227     1     3    10     8
 0.0025681736     1     3    10     9
 0.0024897107     1     3    10    10
 0.0017728933     1     3    10    12
 -0.0020303166     1     3    10    13
 0.0029166538     1     3    10    16
 0.0021265668     1     3    11     5
 -0.0000153006     1     3    11    11
 -0.0012893049     1     3    11    14
 -0.0005547564     1     3    11    15
 0.1038372373     1     3    12     1
 -0.0058960025     1     3    12     2
 -0.0022335769     1     3    12     4
 0.0013960548     1     3    12     6
 -0.0015823044     1     3    12     7
 -0.0004445717     1     3    12     8
 -0.0016986514     1     3    12     9
 0.0015683857     1     3    12    10
 0.0004356728     1     3    12    12
 0.0022940527     1     3    12    13
 -0.0011250875     1     3    12    16
 0.1764488915     1     3    13     1
 -0.0116267615     1     3    13     2
 -0.0034611776     1     3    13     4
 0.0037113831     1     3    13     6
 -0.0019652220     1     3    13     7
 -0.0011387401     1     3    13     8
 -0.0037462899     1     3    13     9
 -0.0006501968     1     3    13    10
 -0.0005585095     1     3    13    12
 0.0037735729     1     3    13    13
 -0.0054065772     1     3    13    16
 -0.0015678688     1     3    14     5
 -0.0033130323     1     3    14    11
 0.0022115035     1     3    14    14
 -0.0018465817     1     3    14    15
 -0.0001447848     1     3    15     5
 0.0002558589     1     3    15    11
 -0.0024470971     1     3    15    14
 0.0007255368     1     3    15    15
 0.0465806496     1     3    16     1
 -0.0018703334     1     3    16     2
 -0.0008438653     1     3    16     4
 0.0006901112     1     3    16     6
 -0.0001680934     1     3    16     7
 -0.0009190351     1     3    16     8
 -0.0015203497     1     3    16     9
 0.0002861762     1     3    16    10
 0.0008469044     1     3    16    12
 -0.0006165332     1     3    16    13
 -0.0004210151     1     3    16    16
 -0.0762298972     1     4     2     1
 -0.0040292945     1     4     2     2
 -0.0004490675     1     4     2     3
 -0.0004956123     1     4     2     6
 -0.0005552622     1     4     2     7
 0.0010442557     1     4     2     8
 -0.0007533139     1     4     2     9
 0.0027483957     1     4     2    10
 0.0016774205     1     4     2    12
 0.0008882805     1     4     2    13
 -0.0007706562     1     4     2    16
 0.0569368570     1     4     3     1
 -0.0035873701     1     4     3     2
 -0.0071978977     1     4     3     3
 0.0009933539     1     4     3     6
 -0.0014966853     1     4     3     7
 -0.0020081535     1     4     3     8
 0.0005623364     1     4     3     9
 -0.0014814514     1     4     3    10
 0.0021307552     1     4     3    12
 0.0024352305     1     4     3    13
 -0.0002088105     1     4     3    16
 -0.8984731418     1     4     4     1
 0.0333355506     1     4     4     2
 -0.0038751494     1     4     4     3
 -0.0080568312     1     4     4     6
 0.0016549418     1     4     4     7
 0.0040819585     1     4     4     8
 0.0052720775     1     4     4     9
 0.0040902277     1     4     4    10
 0.0013982438     1     4     4    12
 -0.0016579059     1     4     4    13
 0.0087179785     1     4     4    16
 -0.0107678094     1     4     5     5
 -0.0047637818     1     4     5    11
 0.0034266080     1     4     5    14
 0.0032872766     1     4     5    15
 -0.1366276040     1     4     6     1
 0.0094243707     1     4     6     2
 -0.0020045562     1     4     6     3
 -0.0050289788     1     4     6     6
 -0.0003912448     1     4     6     7
 0.0028244833     1     4     6     8
 0.0012725455     1     4     6     9
 0.0028326749     1     4     6    10
 0.0022097908     1     4     6    12
 0.0003053941     1     4     6    13
 0.0031992996     1     4     6    16
 -0.0385141137     1     4     7     1
 0.0013079012     1     4     7     2
 -0.0026614990     1     4     7     3
 -0.0011637001     1     4     7     6
 -0.0018076231     1     4     7     7
 0.0011217516     1     4     7     8
 0.0001115161     1     4     7     9
 -0.0011741119     1     4     7    10
 0.0011613752     1     4     7    12
 0.0015387523     1     4     7    13
 0.0004154417     1     4     7    16
 0.0971932082     1     4     8     1
 -0.0072488783     1     4     8     2
 0.0023405411     1     4     8     3
 0.0038992760     1     4     8     6
 0.0013354018     1     4     8     7
 -0.0044972604     1     4     8     8
 -0.0017504654     1     4     8     9
 -0.0006923184     1     4     8    10
 -0.0030666307     1     4     8    12
 -0.0017817724     1     4     8    13
 -0.0024395516     1     4     8    16
 -0.0452526243     1     4     9     1
 0.0011531372     1     4     9     2
 -0.0006474665     1     4     9     3
 -0.0010508596     1     4     9     6
 -0.0005615320     1     4     9     7
 -0.0000214650     1     4     9     8
 -0.0010222509     1     4     9     9
 -0.0004541349     1     4     9    10
 0.0022082673     1     4     9    12
 0.0010241793     1     4     9    13
 -0.0001272051     1     4     9    16
 0.2169421896     1     4    10     1
 -0.0135058369     1     4    10     2
 -0.0001934722     1     4    10     3
 0.0058386472     1     4    10     6
 -0.0023771771     1     4    10     7
 -0.0022876466     1     4    10     8
 -0.0031920162     1     4    10     9
 -0.0017272890     1     4    10    10
 -0.0017598921     1     4    10    12
 0.0045456644     1     4    10    13
 -0.0059395042     1     4    10    16
 -0.0048100843     1     4    11     5
 -0.0044266209     1     4    11    11
 0.0008366726     1     4    11    14
 -0.0006082834     1     4    11    15
 0.0729831005     1     4    12     1
 -0.0053301610     1     4    12     2
 0.0022335769     1     4    12     3
 0.0031431357     1     4    12     6
 0.0000150762     1     4    12     7
 -0.0024595778     1     4    12     8
 0.0003874323     1     4    12     9
 -0.0025827539     1     4    12    10
 -0.0022630604     1     4    12    12
 0.0008031269     1     4    12    13
 -0.0023235069     1     4    12    16
 0.0477749370     1     4    13     1
 -0.0013763266     1     4    13     2
 0.0034611776     1     4    13     3
 0.0009700174     1     4    13     6
 0.0012794869     1     4    13     7
 -0.0010994201     1     4    13     8
 0.0000216014     1     4    13     9
 0.0031208526     1     4    13    10
 -0.0004494119     1     4    13    12
 -0.0016057326     1     4    13    13
 -0.0019740632     1     4    13    16
 0.0022157905     1     4    14     5
 0.0001289214     1     4    14    11
 -0.0022054102     1     4    14    14
 0.0000568336     1     4    14    15
 0.0001281696     1     4    15     5
 -0.0023959213     1     4    15    11
 0.0009392219     1     4    15    14
 -0.0005755333     1     4    15    15
 -0.0361133042     1     4    16     1
 -0.0001759665     1     4    16     2
 0.0008438653     1     4    16     3
 0.0002017567     1     4    16     6
 -0.0000803778     1     4    16     7
 0.0002422202     1     4    16     8
 -0.0006910056     1     4    16     9
 -0.0013486243     1     4    16    10
 -0.0005465544     1     4    16    12
 -0.0014241462     1     4    16    13
 -0.0008018083     1     4    16    16
 -0.0042750047     1     5     2    11
 0.0026056810     1     5     2    14
 -0.0000659704     1     5     2    15
 0.0017074783     1     5     3    11
 0.0027778905     1     5     3    14
 -0.0015994801     1     5     3    15
 0.0003721158     1     5     4    11
 0.0010979819     1     5     4    14
 0.0031811118     1     5     4    15
 -1.0043112329     1     5     5     1
 0.0421155141     1     5     5     2
 -0.0059635290     1     5     5     3
 0.0107678094     1     5     5     4
 -0.0087409571     1     5     5     6
 0.0019707427     1     5     5     7
 0.0057815847     1     5     5     8
 0.0077872123     1     5     5     9
 -0.0008991588     1     5     5    10
 0.0043643524     1     5     5    12
 -0.0060914060     1     5     5    13
 0.0090955895     1     5     5    16
 -0.0014108663     1     5     6    11
 0.0009064935     1     5     6    14
 0.0004575472     1     5     6    15
 0.0006741427     1     5     7    11
 -0.0006100356     1     5     7    14
 -0.0001290833     1     5     7    15
 -0.0011034465     1     5     8    11
 0.0001110588     1     5     8    14
 0.0004348455     1     5     8    15
 -0.0009268442     1     5     9    11
 0.0007912040     1     5     9    14
 0.0003840454     1     5     9    15
 0.0000204499     1     5    10    11
 0.0001287069     1     5    10    14
 0.0002189418     1     5    10    15
 -0.2701896578     1     5    11     1
 0.0166963030     1     5    11     2
 -0.0021265668     1     5    11     3
 0.0048100843     1     5    11     4
 -0.0066081300     1     5    11     6
 0.0013066212     1     5    11     7
 0.0025666166     1     5    11     8
 0.0031208398     1     5    11     9
 -0.0001370095     1     5    11    10
 0.0024780513     1     5    11    12
 -0.0022422309     1     5    11    13
 0.0083797312     1     5    11    16
 -0.0003931676     1     5    12    11
 0.0001564278     1     5    12    14
 -0.0003668788     1     5    12    15
 0.0004789819     1     5    13    11
 -0.0002566813     1     5    13    14
 0.0000615215     1     5    13    15
 0.1387408066     1     5    14     1
 -0.0087577235     1     5    14     2
 0.0015678688     1     5    14     3
 -0.0022157905     1     5    14     4
 0.0028562503     1     5    14     6
 -0.0023335945     1     5    14     7
 -0.0007119969     1     5    14     8
 -0.0018205490     1     5    14     9
 -0.0002590325     1     5    14    10
 -0.0001405834     1     5    14    12
 0.0031010854     1     5    14    13
 -0.0045736912     1     5    14    16
 0.0251660600     1     5    15     1
 -0.0015337931     1     5    15     2
 0.0001447848     1     5    15     3
 -0.0001281696     1     5    15     4
 0.0000463106     1     5    15     6
 0.0001157105     1     5    15     7
 0.0006589582     1     5    15     8
 0.0000093604     1     5    15     9
 0.0021749736     1     5    15    10
 -0.0003153671     1     5    15    12
 -0.0001441660     1     5    15    13
 -0.0017157025     1     5    15    16
 0.0034906614     1     5    16    11
 -0.0023026987     1     5    16    14
 -0.0011914026     1     5    16    15
 0.1309327260     1     6     2     1
 -0.0007419159     1     6     2     2
 0.0010971667     1     6     2     3
 0.0004956123     1     6     2     4
 0.0000923240     1     6     2     7
 0.0002077866     1     6     2     8
 -0.0002169844     1     6     2     9
 0.0009525510     1     6     2    10
 0.0004707178     1     6     2    12
 0.0000596395     1     6     2    13
 -0.0001033374     1     6     2    16
 -0.0651311290     1     6     3     1
 0.0037489987     1     6     3     2
 0.0036802522     1     6     3     3
 -0.0009933539     1     6     3     4
 0.0020972676     1     6     3     7
 -0.0017036926     1     6     3     8
 0.0009922505     1     6     3     9
 0.0021260110     1     6     3    10
 -0.0003797680     1     6     3    12
 -0.0031099197     1     6     3    13
 0.0004367880     1     6     3    16
 -0.1366276040     1     6     4     1
 0.0106169652     1     6     4     2
 -0.0031137389     1     6     4     3
 0.0080568312     1     6     4     4
 0.0007792968     1     6     4     7
 -0.0011022874     1     6     4     8
 0.0023415182     1     6     4     9
 -0.0030416046     1     6     4    10
 -0.0009504767     1     6     4    12
 -0.0006707035     1     6     4    13
 0.0030334846     1     6     4    16
 0.0087409571     1     6     5     5
 0.0051517924     1     6     5    11
 -0.0019208587     1     6     5    14
 0.0004197902     1     6     5    15
 -0.3705202790     1     6     6     1
 0.0045688216     1     6     6     2
 0.0005711151     1     6     6     3
 0.0050289788     1     6     6     4
 0.0007757952     1     6     6     7
 -0.0008771282     1     6     6     8
 0.0011266948     1     6     6     9
 -0.0011692727     1     6     6    10
 -0.0007142680     1     6     6    12
 -0.0012575669     1     6     6    13
 0.0011884924     1     6     6    16
 -0.0224833554     1     6     7     1
 0.0025056309     1     6     7     2
 0.0032755561     1     6     7     3
 0.0011637001     1     6     7     4
 0.0016080955     1     6     7     7
 -0.0008804596     1     6     7     8
 0.0009490557     1     6     7     9
 0.0006577519     1     6     7    10
 -0.0011320692     1     6     7    12
 -0.0024989886     1     6     7    13
 0.0001984118     1     6     7    16
 0.1290928116     1     6     8     1
 -0.0041604325     1     6     8     2
 -0.0014247714     1     6     8     3
 -0.0038992760     1     6     8     4
 -0.0009136985     1     6     8     7
 -0.0001589974     1     6     8     8
 -0.0012978273     1     6     8     9
 0.0007682363     1     6     8    10
 0.0003256317     1     6     8    12
 0.0013222104     1     6     8    13
 -0.0010460151     1     6     8    16
 0.0254086432     1     6     9     1
 0.0008069151     1     6     9     2
 0.0002349211     1     6     9     3
 0.0010508596     1     6     9     4
 0.0003626896     1     6     9     7
 -0.0004369914     1     6     9     8
 -0.0001040689     1     6     9     9
 -0.0000668923     1     6     9    10
 0.0002647074     1     6     9    12
 -0.0006570442     1     6     9    13
 -0.0001304995     1     6     9    16
 0.0758391884     1     6    10     1
 -0.0037261791     1     6    10     2
 0.0032328535     1     6    10     3
 -0.0058386472     1     6    10     4
 0.0001257619     1     6    10     7
 0.0003345284     1     6    10     8
 -0.0007888074     1     6    10     9
 0.0039326700     1     6    10    10
 0.0000765170     1     6    10    12
 0.0001829688     1     6    10    13
 -0.0021165435     1     6    10    16
 0.0066081300     1     6    11     5
 0.0030716672     1     6    11    11
 -0.0023595991     1     6    11    14
 -0.0007108577     1     6    11    15
 0.0829646148     1     6    12     1
 -0.0034697695     1     6    12     2
 -0.0013960548     1     6    12     3
 -0.0031431357     1     6    12     4
 -0.0015186640     1     6    12     7
 0.0005675373     1     6    12     8
 -0.0006522793     1     6    12     9
 0.0000048386     1     6    12    10
 0.0007033320     1     6    12    12
 0.0024150089     1     6    12    13
 -0.0007977299     1     6    12    16
 0.0144606843     1     6    13     1
 -0.0029907715     1     6    13     2
 -0.0037113831     1     6    13     3
 -0.0009700174     1     6    13     4
 -0.0020702875     1     6    13     7
 0.0009682149     1     6    13     8
 -0.0013098391     1     6    13     9
 -0.0003553469     1     6    13    10
 0.0015173053     1     6    13    12
 0.0031092198     1     6    13    13
 -0.0010334112     1     6    13    16
 -0.0028562503     1     6    14     5
 -0.0024539684     1     6    14    11
 0.0005762915     1     6    14    14
 -0.0000623132     1     6    14    15
 -0.0000463106     1     6    15     5
 -0.0008977946     1     6    15    11
 0.0000276572     1     6    15    14
 -0.0001063253     1     6    15    15
 0.0806964252     1     6    16     1
 -0.0008141101     1     6    16     2
 -0.0006901112     1     6    16     3
 -0.0002017567     1     6    16     4
 -0.0005047657     1     6    16     7
 0.0002613596     1     6    16     8
 -0.0006133759     1     6    16     9
 -0.0007791252     1     6    16    10
 0.0002756685     1     6    16    12
 0.0000183696     1     6    16    13
 -0.0002090402     1     6    16    16
 -0.0445028138     1     7     2     1
 0.0012577071     1     7     2     2
 0.0017419417     1     7     2     3
 0.0005552622     1     7     2     4
 -0.0000923240     1     7     2     6
 0.0002522090     1     7     2     8
 -0.0001330170     1     7     2     9
 -0.0003533590     1     7     2    10
 0.0004017547     1     7     2    12
 0.0005165168     1     7     2    13
 0.0004285024     1     7     2    16