&FCI NORB= 10,NELEC=  6,MS2=0,
 ORBSYM=1,1,1,1,1,1,1,1,1,1
 ISYM=1,
&END
 0.1367470280     1     1     2     2
 0.0157622768     1     1     2     4
 0.0100571477     1     1     2     6
 -0.0006910781     1     1     2     8
 -0.0055761408     1     1     2    10
 0.1752864228     1     1     3     3
 0.0339559397     1     1     3     5
 -0.0007445988     1     1     3     7
 -0.0019205637     1     1     3     9
 0.0157622768     1     1     4     2
 0.1903876477     1     1     4     4
 -0.0387551323     1     1     4     6
 -0.0028747429     1     1     4     8
 -0.0086016364     1     1     4    10
 0.0339559397     1     1     5     3
 0.1877653635     1     1     5     5
 -0.0108358490     1     1     5     7
 0.0207657020     1     1     5     9
 0.0100571477     1     1     6     2
 -0.0387551323     1     1     6     4
 0.2152994188     1     1     6     6
 0.0314273363     1     1     6     8
 -0.0290693622     1     1     6    10
 -0.0007445988     1     1     7     3
 -0.0108358490     1     1     7     5
 0.1877513031     1     1     7     7
 0.0342811579     1     1     7     9
 -0.0006910781     1     1     8     2
 -0.0028747429     1     1     8     4
 0.0314273363     1     1     8     6
 0.1651694559     1     1     8     8
 0.0192161671     1     1     8    10
 -0.0019205637     1     1     9     3
 0.0207657020     1     1     9     5
 0.0342811579     1     1     9     7
 0.1692903868     1     1     9     9
 -0.0055761408     1     1    10     2
 -0.0086016364     1     1    10     4
 -0.0290693622     1     1    10     6
 0.0192161671     1     1    10     8
 0.1827747519     1     1    10    10
 -0.1367470280     1     2     2     1
 -0.0491716133     1     2     2     3
 -0.0013191616     1     2     2     5
 0.0040673324     1     2     2     7
 0.0053796600     1     2     2     9
 0.0441646115     1     2     3     4
 -0.0221601273     1     2     3     6
 -0.0030347979     1     2     3     8
 -0.0011632518     1     2     3    10
 -0.0157622768     1     2     4     1
 0.0120868905     1     2     4     3
 -0.0500563571     1     2     4     5
 0.0067870507     1     2     4     7
 -0.0113925754     1     2     4     9
 -0.0353738724     1     2     5     4
 -0.0561026848     1     2     5     6
 -0.0168931682     1     2     5     8
 0.0164358299     1     2     5    10
 -0.0100571477     1     2     6     1
 -0.0164868652     1     2     6     3
 -0.0453833265     1     2     6     5
 -0.0062388328     1     2     6     7
 0.0086030292     1     2     6     9
 0.0047194758     1     2     7     4
 -0.0058135925     1     2     7     6
 0.0508114554     1     2     7     8
 0.0167299087     1     2     7    10
 0.0006910781     1     2     8     1
 0.0001312768     1     2     8     3
 -0.0144529427     1     2     8     5
 0.0500858867     1     2     8     7
 -0.0312261105     1     2     8     9
 -0.0118048358     1     2     9     4
 0.0051190316     1     2     9     6
 -0.0314142526     1     2     9     8
 0.0429069464     1     2     9    10
 0.0055761408     1     2    10     1
 0.0051238556     1     2    10     3
 0.0175045792     1     2    10     5
 0.0159871863     1     2    10     7
 0.0411567056     1     2    10     9
 0.0491716133     1     3     2     2
 0.0320946328     1     3     2     4
 -0.0054781790     1     3     2     6
 -0.0031550030     1     3     2     8
 -0.0063095849     1     3     2    10
 -0.1752864228     1     3     3     1
 0.0321871656     1     3     3     5
 0.0045731410     1     3     3     7
 0.0104935283     1     3     3     9
 -0.0120868905     1     3     4     2
 0.0103799900     1     3     4     4
 -0.0358026381     1     3     4     6
 -0.0098908596     1     3     4     8
 0.0086290761     1     3     4    10
 -0.0339559397     1     3     5     1
 0.0018001544     1     3     5     5
 0.0000242268     1     3     5     7
 0.0068575549     1     3     5     9
 0.0164868652     1     3     6     2
 -0.0146877344     1     3     6     4
 0.0215852268     1     3     6     6
 0.0124530676     1     3     6     8
 -0.0127117040     1     3     6    10
 0.0007445988     1     3     7     1
 -0.0016180771     1     3     7     5
 0.0162553450     1     3     7     7
 0.0291597718     1     3     7     9
 -0.0001312768     1     3     8     2
 -0.0079931205     1     3     8     4
 0.0121962677     1     3     8     6
 -0.0069744116     1     3     8     8
 0.0127104397     1     3     8    10
 0.0019205637     1     3     9     1
 -0.0001295406     1     3     9     5
 0.0287996942     1     3     9     7
 0.0038372163     1     3     9     9
 -0.0051238556     1     3    10     2
 0.0006618239     1     3    10     4
 -0.0047656894     1     3    10     6
 0.0136814091     1     3    10     8
 0.0029703471     1     3    10    10
 -0.0157622768     1     4     2     1
 -0.0320946328     1     4     2     3
 -0.0155848239     1     4     2     5
 0.0021923026     1     4     2     7
 0.0005400313     1     4     2     9
 -0.0441646115     1     4     3     2
 -0.0231136413     1     4     3     6
 -0.0024749380     1     4     3     8
 0.0091098914     1     4     3    10
 -0.1903876477     1     4     4     1
 -0.0103799900     1     4     4     3
 -0.0013174895     1     4     4     5
 0.0139411136     1     4     4     7
 -0.0006871487     1     4     4     9
 0.0353738724     1     4     5     2
 -0.0110369790     1     4     5     6
 -0.0123669274     1     4     5     8
 0.0074962736     1     4     5    10
 0.0387551323     1     4     6     1
 0.0146877344     1     4     6     3
 -0.0099939238     1     4     6     5
 -0.0019853389     1     4     6     7
 -0.0091231711     1     4     6     9
 -0.0047194758     1     4     7     2
 0.0010482159     1     4     7     6
 0.0094630067     1     4     7     8
 0.0169203466     1     4     7    10
 0.0028747429     1     4     8     1
 0.0079931205     1     4     8     3
 -0.0025744306     1     4     8     5
 0.0084455548     1     4     8     7
 0.0062616700     1     4     8     9
 0.0118048358     1     4     9     2
 -0.0015991090     1     4     9     6
 0.0059785277     1     4     9     8
 0.0053602793     1     4     9    10
 0.0086016364     1     4    10     1
 -0.0006618239     1     4    10     3
 0.0058735629     1     4    10     5
 0.0138822180     1     4    10     7
 0.0076488513     1     4    10     9
 0.0013191616     1     5     2     2
 0.0155848239     1     5     2     4
 -0.0121059817     1     5     2     6
 -0.0029985892     1     5     2     8
 -0.0009872484     1     5     2    10
 -0.0339559397     1     5     3     1
 -0.0321871656     1     5     3     3
 0.0016826824     1     5     3     7
 0.0072600191     1     5     3     9
 0.0500563571     1     5     4     2
 0.0013174895     1     5     4     4
 -0.0009902487     1     5     4     6
 -0.0097767920     1     5     4     8
 0.0016043944     1     5     4    10
 -0.1877653635     1     5     5     1
 -0.0018001544     1     5     5     3
 0.0138792275     1     5     5     7
 -0.0014995837     1     5     5     9
 0.0453833265     1     5     6     2
 0.0099939238     1     5     6     4
 -0.0060970693     1     5     6     6
 -0.0087600602     1     5     6     8
 0.0027088285     1     5     6    10
 0.0108358490     1     5     7     1
 0.0016180771     1     5     7     3
 -0.0055261545     1     5     7     7
 -0.0028769140     1     5     7     9
 0.0144529427     1     5     8     2
 0.0025744306     1     5     8     4
 -0.0009677940     1     5     8     6
 -0.0051828200     1     5     8     8
 -0.0078290451     1     5     8    10
 -0.0207657020     1     5     9     1
 0.0001295406     1     5     9     3
 0.0006659568     1     5     9     7
 0.0010942053     1     5     9     9
 -0.0175045792     1     5    10     2
 -0.0058735629     1     5    10     4
 0.0048524918     1     5    10     6
 -0.0027836592     1     5    10     8
 -0.0061328129     1     5    10    10
 -0.0100571477     1     6     2     1
 0.0054781790     1     6     2     3
 0.0121059817     1     6     2     5
 -0.0006481416     1     6     2     7
 0.0037196656     1     6     2     9
 0.0221601273     1     6     3     2
 0.0231136413     1     6     3     4
 0.0001883296     1     6     3     8
 -0.0088774625     1     6     3    10
 0.0387551323     1     6     4     1
 0.0358026381     1     6     4     3
 0.0009902487     1     6     4     5
 -0.0030495579     1     6     4     7
 -0.0076766199     1     6     4     9
 0.0561026848     1     6     5     2
 0.0110369790     1     6     5     4
 -0.0078204218     1     6     5     8
 -0.0022008921     1     6     5    10
 -0.2152994188     1     6     6     1
 -0.0215852268     1     6     6     3
 0.0060970693     1     6     6     5
 0.0153848581     1     6     6     7
 0.0056503886     1     6     6     9
 0.0058135925     1     6     7     2
 -0.0010482159     1     6     7     4
 -0.0022525054     1     6     7     8
 -0.0014184771     1     6     7    10
 -0.0314273363     1     6     8     1
 -0.0121962677     1     6     8     3
 0.0009677940     1     6     8     5
 0.0023125569     1     6     8     7
 0.0013567376     1     6     8     9
 -0.0051190316     1     6     9     2
 0.0015991090     1     6     9     4
 -0.0009786470     1     6     9     8
 -0.0038064458     1     6     9    10
 0.0290693622     1     6    10     1
 0.0047656894     1     6    10     3
 -0.0048524918     1     6    10     5
 -0.0048573397     1     6    10     7
 -0.0058489483     1     6    10     9
 -0.0040673324     1     7     2     2
 -0.0021923026     1     7     2     4
 0.0006481416     1     7     2     6
 0.0008296794     1     7     2     8
 0.0007398382     1     7     2    10
 0.0007445988     1     7     3     1
 -0.0045731410     1     7     3     3
 -0.0016826824     1     7     3     5
 0.0003392419     1     7     3     9
 -0.0067870507     1     7     4     2
 -0.0139411136     1     7     4     4
 0.0030495579     1     7     4     6
 0.0010175046     1     7     4     8
 0.0029669260     1     7     4    10
 0.0108358490     1     7     5     1
 -0.0000242268     1     7     5     3
 -0.0138792275     1     7     5     5
 -0.0035291689     1     7     5     9
 0.0062388328     1     7     6     2
 0.0019853389     1     7     6     4
 -0.0153848581     1     7     6     6
 -0.0045578539     1     7     6     8
 0.0034775138     1     7     6    10
 -0.1877513031     1     7     7     1
 -0.0162553450     1     7     7     3
 0.0055261545     1     7     7     5
 0.0020562078     1     7     7     9
 -0.0500858867     1     7     8     2
 -0.0084455548     1     7     8     4
 -0.0023125569     1     7     8     6
 -0.0028937793     1     7     8     8
 0.0025014143     1     7     8    10
 -0.0342811579     1     7     9     1
 -0.0287996942     1     7     9     3
 -0.0006659568     1     7     9     5
 -0.0035780608     1     7     9     9
 -0.0159871863     1     7    10     2
 -0.0138822180     1     7    10     4
 0.0048573397     1     7    10     6
 0.0012581703     1     7    10     8
 -0.0052211888     1     7    10    10
 0.0006910781     1     8     2     1
 0.0031550030     1     8     2     3
 0.0029985892     1     8     2     5
 -0.0008296794     1     8     2     7
 0.0002914154     1     8     2     9
 0.0030347979     1     8     3     2
 0.0024749380     1     8     3     4
 -0.0001883296     1     8     3     6
 -0.0013060388     1     8     3    10
 0.0028747429     1     8     4     1
 0.0098908596     1     8     4     3
 0.0097767920     1     8     4     5
 -0.0010175046     1     8     4     7
 0.0002267906     1     8     4     9
 0.0168931682     1     8     5     2
 0.0123669274     1     8     5     4
 0.0078204218     1     8     5     6
 -0.0050423319     1     8     5    10
 -0.0314273363     1     8     6     1
 -0.0124530676     1     8     6     3
 0.0087600602     1     8     6     5
 0.0045578539     1     8     6     7
 0.0023301149     1     8     6     9
 -0.0508114554     1     8     7     2
 -0.0094630067     1     8     7     4
 0.0022525054     1     8     7     6
 0.0012295902     1     8     7    10
 -0.1651694559     1     8     8     1
 0.0069744116     1     8     8     3
 0.0051828200     1     8     8     5
 0.0028937793     1     8     8     7
 0.0037311522     1     8     8     9
 0.0000000001     1     8     8    10
 0.0314142526     1     8     9     2
 -0.0059785277     1     8     9     4
 0.0009786470     1     8     9     6
 -0.0039981702     1     8     9    10
 -0.0192161671     1     8    10     1
 -0.0136814091     1     8    10     3
 0.0027836592     1     8    10     5
 -0.0012581703     1     8    10     7
 -0.0022066567     1     8    10     9
 -0.0053796600     1     9     2     2
 -0.0005400313     1     9     2     4
 -0.0037196656     1     9     2     6
 -0.0002914154     1     9     2     8
 0.0018397077     1     9     2    10
 0.0019205637     1     9     3     1
 -0.0104935283     1     9     3     3
 -0.0072600191     1     9     3     5
 -0.0003392419     1     9     3     7
 0.0113925754     1     9     4     2
 0.0006871487     1     9     4     4
 0.0076766199     1     9     4     6
 -0.0002267906     1     9     4     8
 -0.0023382383     1     9     4    10
 -0.0207657020     1     9     5     1
 -0.0068575549     1     9     5     3
 0.0014995837     1     9     5     5
 0.0035291689     1     9     5     7
 -0.0086030292     1     9     6     2
 0.0091231711     1     9     6     4
 -0.0056503886     1     9     6     6
 -0.0023301149     1     9     6     8
 0.0020843643     1     9     6    10
 -0.0342811579     1     9     7     1
 -0.0291597718     1     9     7     3
 0.0028769140     1     9     7     5
 -0.0020562078     1     9     7     7
 0.0312261105     1     9     8     2
 -0.0062616700     1     9     8     4
 -0.0013567376     1     9     8     6
 -0.0037311522     1     9     8     8
 -0.0017893017     1     9     8    10
 -0.1692903868     1     9     9     1
 -0.0038372163     1     9     9     3
 -0.0010942053     1     9     9     5
 0.0035780608     1     9     9     7
 -0.0411567056     1     9    10     2
 -0.0076488513     1     9    10     4
 0.0058489483     1     9    10     6
 0.0022066567     1     9    10     8
 -0.0016295479     1     9    10    10
 0.0055761408     1    10     2     1
 0.0063095849     1    10     2     3
 0.0009872484     1    10     2     5
 -0.0007398382     1    10     2     7
 -0.0018397077     1    10     2     9
 0.0011632518     1    10     3     2
 -0.0091098914     1    10     3     4
 0.0088774625     1    10     3     6
 0.0013060388     1    10     3     8
 0.0086016364     1    10     4     1
 -0.0086290761     1    10     4     3
 -0.0016043944     1    10     4     5
 -0.0029669260     1    10     4     7
 0.0023382383     1    10     4     9
 -0.0164358299     1    10     5     2
 -0.0074962736     1    10     5     4
 0.0022008921     1    10     5     6
 0.0050423319     1    10     5     8
 0.0290693622     1    10     6     1
 0.0127117040     1    10     6     3
 -0.0027088285     1    10     6     5
 -0.0034775138     1    10     6     7
 -0.0020843643     1    10     6     9
 -0.0167299087     1    10     7     2
 -0.0169203466     1    10     7     4
 0.0014184771     1    10     7     6
 -0.0012295902     1    10     7     8
 -0.0192161671     1    10     8     1
 -0.0127104397     1    10     8     3
 0.0078290451     1    10     8     5
 -0.0025014143     1    10     8     7
 -0.0000000001     1    10     8     8
 0.0017893017     1    10     8     9
 -0.0429069464     1    10     9     2
 -0.0053602793     1    10     9     4
 0.0038064458     1    10     9     6
 0.0039981702     1    10     9     8
 -0.1827747519     1    10    10     1
 -0.0029703471     1    10    10     3
 0.0061328129     1    10    10     5
 0.0052211888     1    10    10     7
 0.0016295479     1    10    10     9
 -0.1367470280     2     1     1     2
 -0.0157622768     2     1     1     4
 -0.0100571477     2     1     1     6
 0.0006910781     2     1     1     8
 0.0055761408     2     1     1    10
 -0.0491716133     2     1     3     2
 0.0120868905     2     1     3     4
 -0.0164868652     2     1     3     6
 0.0001312768     2     1     3     8
 0.0051238556     2     1     3    10
 0.0441646115     2     1     4     3
 -0.0353738724     2     1     4     5
 0.0047194758     2     1     4     7
 -0.0118048358     2     1     4     9
 -0.0013191616     2     1     5     2
 -0.0500563571     2     1     5     4
 -0.0453833265     2     1     5     6
 -0.0144529427     2     1     5     8
 0.0175045792     2     1     5    10
 -0.0221601273     2     1     6     3
 -0.0561026848     2     1     6     5
 -0.0058135925     2     1     6     7
 0.0051190316     2     1     6     9
 0.0040673324     2     1     7     2
 0.0067870507     2     1     7     4
 -0.0062388328     2     1     7     6
 0.0500858867     2     1     7     8
 0.0159871863     2     1     7    10
 -0.0030347979     2     1     8     3
 -0.0168931682     2     1     8     5
 0.0508114554     2     1     8     7
 -0.0314142526     2     1     8     9
 0.0053796600     2     1     9     2
 -0.0113925754     2     1     9     4
 0.0086030292     2     1     9     6
 -0.0312261105     2     1     9     8
 0.0411567056     2     1     9    10
 -0.0011632518     2     1    10     3
 0.0164358299     2     1    10     5
 0.0167299087     2     1    10     7
 0.0429069464     2     1    10     9
 0.1367470280     2     2     1     1
 0.0491716133     2     2     1     3
 0.0013191616     2     2     1     5
 -0.0040673324     2     2     1     7
 -0.0053796600     2     2     1     9
 0.0491716133     2     2     3     1
 0.1420930681     2     2     3     3
 0.0088217227     2     2     3     5
 -0.0025331331     2     2     3     7
 -0.0066973380     2     2     3     9
 0.1725091723     2     2     4     4
 -0.0081993555     2     2     4     6
 0.0063392650     2     2     4     8
 -0.0142935586     2     2     4    10
 0.0013191616     2     2     5     1
 0.0088217227     2     2     5     3
 0.1814122463     2     2     5     5
 -0.0078823709     2     2     5     7
 0.0170954781     2     2     5     9
 -0.0081993555     2     2     6     4
 0.1865583963     2     2     6     6
 0.0166951112     2     2     6     8
 -0.0179796394     2     2     6    10
 -0.0040673324     2     2     7     1
 -0.0025331331     2     2     7     3
 -0.0078823709     2     2     7     5
 0.1703567731     2     2     7     7
 0.0036371474     2     2     7     9
 0.0063392650     2     2     8     4
 0.0166951112     2     2     8     6
 0.1720621025     2     2     8     8
 0.0049771647     2     2     8    10
 -0.0053796600     2     2     9     1
 -0.0066973380     2     2     9     3
 0.0170954781     2     2     9     5
 0.0036371474     2     2     9     7
 0.1655776345     2     2     9     9
 -0.0142935586     2     2    10     4
 -0.0179796394     2     2    10     6
 0.0049771647     2     2    10     8
 0.1786423663     2     2    10    10
 -0.0491716133     2     3     1     2
 -0.0320946328     2     3     1     4
 0.0054781790     2     3     1     6
 0.0031550030     2     3     1     8
 0.0063095849     2     3     1    10
 -0.1420930681     2     3     3     2
 -0.0568252666     2     3     3     4
 0.0037903409     2     3     3     6
 0.0027769551     2     3     3     8
 0.0094062864     2     3     3    10
 -0.0441646115     2     3     4     1
 0.0555430957     2     3     4     5
 0.0002062250     2     3     4     7
 0.0114541771     2     3     4     9
 -0.0088217227     2     3     5     2
 0.0293519856     2     3     5     4
 0.0498962743     2     3     5     6
 0.0109668513     2     3     5     8
 -0.0101788343     2     3     5    10
 0.0221601273     2     3     6     1
 0.0321781091     2     3     6     5
 0.0070764646     2     3     6     7
 -0.0141167359     2     3     6     9
 0.0025331331     2     3     7     2
 0.0008214999     2     3     7     4
 0.0062828194     2     3     7     6
 -0.0484090948     2     3     7     8
 -0.0072355123     2     3     7    10
 0.0030347979     2     3     8     1
 0.0082936475     2     3     8     5
 -0.0475358410     2     3     8     7
 0.0377850351     2     3     8     9
 0.0066973380     2     3     9     2
 0.0115393336     2     3     9     4
 -0.0075264019     2     3     9     6
 0.0383416180     2     3     9     8
 -0.0417807569     2     3     9    10
 0.0011632518     2     3    10     1
 -0.0118729938     2     3    10     5
 -0.0068605851     2     3    10     7
 -0.0390545422     2     3    10     9
 0.0157622768     2     4     1     1
 0.0320946328     2     4     1     3
 0.0155848239     2     4     1     5
 -0.0021923026     2     4     1     7
 -0.0005400313     2     4     1     9
 -0.0120868905     2     4     3     1
 0.0568252666     2     4     3     3
 0.0277874146     2     4     3     5
 -0.0007757696     2     4     3     7
 -0.0000431384     2     4     3     9
 -0.1725091723     2     4     4     2
 -0.0374207941     2     4     4     6
 0.0022286353     2     4     4     8
 0.0096880985     2     4     4    10
 0.0500563571     2     4     5     1
 -0.0293519856     2     4     5     3
 0.0040989153     2     4     5     5
 -0.0121571976     2     4     5     7
 0.0107280149     2     4     5     9
 0.0081993555     2     4     6     2
 0.0208430730     2     4     6     6
 0.0163891520     2     4     6     8
 -0.0176451652     2     4     6    10
 -0.0067870507     2     4     7     1
 -0.0008214999     2     4     7     3
 -0.0039593747     2     4     7     5
 0.0180264107     2     4     7     7
 0.0242625986     2     4     7     9
 -0.0063392650     2     4     8     2
 0.0095986541     2     4     8     6
 -0.0004167849     2     4     8     8
 0.0155903765     2     4     8    10
 0.0113925754     2     4     9     1
 -0.0115393336     2     4     9     3
 -0.0014762431     2     4     9     5
 0.0217394487     2     4     9     7
 0.0028734737     2     4     9     9
 0.0142935586     2     4    10     2
 -0.0054118753     2     4    10     6
 0.0137791957     2     4    10     8
 0.0093911891     2     4    10    10
 -0.0013191616     2     5     1     2
 -0.0155848239     2     5     1     4
 0.0121059817     2     5     1     6
 0.0029985892     2     5     1     8
 0.0009872484     2     5     1    10
 -0.0088217227     2     5     3     2
 -0.0277874146     2     5     3     4
 0.0182602379     2     5     3     6
 0.0028378411     2     5     3     8
 0.0022893877     2     5     3    10
 0.0353738724     2     5     4     1
 -0.0555430957     2     5     4     3
 -0.0080723880     2     5     4     7
 0.0124677530     2     5     4     9
 -0.1814122463     2     5     5     2
 -0.0040989153     2     5     5     4
 -0.0071157022     2     5     5     6
 0.0178240204     2     5     5     8
 -0.0041879438     2     5     5    10
 0.0561026848     2     5     6     1
 -0.0321781091     2     5     6     3
 -0.0116125125     2     5     6     7
 0.0090717555     2     5     6     9
 0.0078823709     2     5     7     2
 0.0039593747     2     5     7     4
 -0.0029745324     2     5     7     6
 -0.0033391575     2     5     7     8
 -0.0154036214     2     5     7    10
 0.0168931682     2     5     8     1
 -0.0082936475     2     5     8     3
 -0.0055789895     2     5     8     7
 -0.0102135731     2     5     8     9
 -0.0170954781     2     5     9     2
 0.0014762431     2     5     9     4
 -0.0009129574     2     5     9     6
 -0.0092136335     2     5     9     8
 0.0018945099     2     5     9    10
 -0.0164358299     2     5    10     1
 0.0118729938     2     5    10     3
 -0.0100113254     2     5    10     7
 -0.0013228693     2     5    10     9
 0.0100571477     2     6     1     1
 -0.0054781790     2     6     1     3
 -0.0121059817     2     6     1     5
 0.0006481416     2     6     1     7
 -0.0037196656     2     6     1     9
 0.0164868652     2     6     3     1
 -0.0037903409     2     6     3     3
 -0.0182602379     2     6     3     5
 0.0007303570     2     6     3     7
 -0.0067371296     2     6     3     9
 0.0081993555     2     6     4     2
 0.0374207941     2     6     4     4
 0.0068170542     2     6     4     8
 -0.0122559138     2     6     4    10
 0.0453833265     2     6     5     1
 -0.0498962743     2     6     5     3
 0.0071157022     2     6     5     5
 -0.0085853880     2     6     5     7
 0.0100456095     2     6     5     9
 -0.1865583963     2     6     6     2
 -0.0208430730     2     6     6     4
 0.0123019779     2     6     6     8
 0.0031579378     2     6     6    10
 0.0062388328     2     6     7     1
 -0.0062828194     2     6     7     3
 0.0029745324     2     6     7     5
 0.0044270090     2     6     7     7
 0.0014161323     2     6     7     9
 -0.0166951112     2     6     8     2
 -0.0095986541     2     6     8     4
 0.0070914294     2     6     8     8
 0.0076952226     2     6     8    10
 -0.0086030292     2     6     9     1
 0.0075264019     2     6     9     3
 0.0009129574     2     6     9     5
 0.0002054472     2     6     9     7
 0.0018007926     2     6     9     9
 0.0179796394     2     6    10     2
 0.0054118753     2     6    10     4
 0.0031962399     2     6    10     8
 0.0067093809     2     6    10    10
 0.0040673324     2     7     1     2
 0.0021923026     2     7     1     4
 -0.0006481416     2     7     1     6
 -0.0008296794     2     7     1     8
 -0.0007398382     2     7     1    10
 0.0025331331     2     7     3     2
 0.0007757696     2     7     3     4
 -0.0007303570     2     7     3     6
 -0.0008574572     2     7     3     8
 -0.0005323692     2     7     3    10
 -0.0047194758     2     7     4     1
 -0.0002062250     2     7     4     3
 0.0080723880     2     7     4     5
 0.0024405390     2     7     4     9
 0.0078823709     2     7     5     2
 0.0121571976     2     7     5     4
 0.0085853880     2     7     5     6
 0.0022306817     2     7     5     8
 -0.0053999042     2     7     5    10
 0.0058135925     2     7     6     1
 -0.0070764646     2     7     6     3
 0.0116125125     2     7     6     5
 0.0012169273     2     7     6     9
 -0.1703567731     2     7     7     2
 -0.0180264107     2     7     7     4
 -0.0044270090     2     7     7     6
 0.0000466904     2     7     7     8
 0.0042414190     2     7     7    10
 -0.0508114554     2     7     8     1
 0.0475358410     2     7     8     3
 0.0055789895     2     7     8     5
 0.0018498196     2     7     8     9
 0.0000000001     2     7     8    10
 -0.0036371474     2     7     9     2
 -0.0217394487     2     7     9     4
 -0.0002054472     2     7     9     6
 0.0014804168     2     7     9     8
 -0.0009227487     2     7     9    10
 -0.0167299087     2     7    10     1
 0.0068605851     2     7    10     3
 0.0100113254     2     7    10     5
 -0.0018321342     2     7    10     9
 0.0000000001     2     7    10    10
 -0.0006910781     2     8     1     1
 -0.0031550030     2     8     1     3
 -0.0029985892     2     8     1     5
 0.0008296794     2     8     1     7
 -0.0002914154     2     8     1     9
 -0.0001312768     2     8     3     1
 -0.0027769551     2     8     3     3
 -0.0028378411     2     8     3     5
 0.0008574572     2     8     3     7
 -0.0006209352     2     8     3     9
 -0.0063392650     2     8     4     2
 -0.0022286353     2     8     4     4
 -0.0068170542     2     8     4     6
 0.0017754247     2     8     4    10
 0.0144529427     2     8     5     1
 -0.0109668513     2     8     5     3
 -0.0178240204     2     8     5     5
 -0.0022306817     2     8     5     7
 -0.0010022718     2     8     5     9
 -0.0166951112     2     8     6     2
 -0.0163891520     2     8     6     4
 -0.0123019779     2     8     6     6
 0.0044882811     2     8     6    10
 -0.0500858867     2     8     7     1
 0.0484090948     2     8     7     3
 0.0033391575     2     8     7     5
 -0.0000466904     2     8     7     7
 0.0003749505     2     8     7     9
 0.0000000001     2     8     7    10
 -0.1720621025     2     8     8     2
 0.0004167849     2     8     8     4
 -0.0070914294     2     8     8     6
 0.0054988768     2     8     8    10
 0.0312261105     2     8     9     1
 -0.0383416180     2     8     9     3
 0.0092136335     2     8     9     5
 -0.0014804168     2     8     9     7
 -0.0016485339     2     8     9     9
 -0.0049771647     2     8    10     2
 -0.0137791957     2     8    10     4
 -0.0031962399     2     8    10     6
 -0.0031546516     2     8    10    10
 0.0053796600     2     9     1     2
 0.0005400313     2     9     1     4
 0.0037196656     2     9     1     6
 0.0002914154     2     9     1     8
 -0.0018397077     2     9     1    10
 0.0066973380     2     9     3     2
 0.0000431384     2     9     3     4
 0.0067371296     2     9     3     6
 0.0006209352     2     9     3     8
 -0.0026244157     2     9     3    10
 0.0118048358     2     9     4     1
 -0.0114541771     2     9     4     3
 -0.0124677530     2     9     4     5
 -0.0024405390     2     9     4     7
 -0.0170954781     2     9     5     2
 -0.0107280149     2     9     5     4
 -0.0100456095     2     9     5     6
 0.0010022718     2     9     5     8
 0.0031919676     2     9     5    10
 -0.0051190316     2     9     6     1
 0.0141167359     2     9     6     3
 -0.0090717555     2     9     6     5
 -0.0012169273     2     9     6     7
 -0.0036371474     2     9     7     2
 -0.0242625986     2     9     7     4
 -0.0014161323     2     9     7     6
 -0.0003749505     2     9     7     8
 0.0009235598     2     9     7    10
 0.0314142526     2     9     8     1
 -0.0377850351     2     9     8     3
 0.0102135731     2     9     8     5
 -0.0018498196     2     9     8     7
 -0.1655776345     2     9     9     2
 -0.0028734737     2     9     9     4