&FCI NORB= 13,NELEC= 10,MS2=0,
 ORBSYM=1,1,1,1,1,1,1,1,1,1,1,1,1
 ISYM=1,
&END
 0.9842402089     1     1     2     2
 0.0666620092     1     1     2     4
 -0.1066131746     1     1     2     6
 0.0538140642     1     1     2     8
 -0.1104852863     1     1     2    11
 0.0538277879     1     1     2    13
 0.8706573272     1     1     3     3
 0.1170064049     1     1     3     7
 -0.0453310748     1     1     3     9
 -0.2228711303     1     1     3    12
 0.0666620092     1     1     4     2
 0.9502137219     1     1     4     4
 0.0595204319     1     1     4     6
 0.1227868444     1     1     4     8
 0.1598953502     1     1     4    11
 -0.0573386073     1     1     4    13
 0.9955007077     1     1     5     5
 0.2223939044     1     1     5    10
 -0.1066131746     1     1     6     2
 0.0595204319     1     1     6     4
 0.2797103329     1     1     6     6
 -0.0147239390     1     1     6     8
 0.1066315231     1     1     6    11
 -0.0477811425     1     1     6    13
 0.1170064049     1     1     7     3
 0.2410365941     1     1     7     7
 -0.0305085859     1     1     7     9
 -0.1283686211     1     1     7    12
 0.0538140642     1     1     8     2
 0.1227868444     1     1     8     4
 -0.0147239390     1     1     8     6
 0.3089779228     1     1     8     8
 0.0208231593     1     1     8    11
 -0.0204580974     1     1     8    13
 -0.0453310748     1     1     9     3
 -0.0305085859     1     1     9     7
 0.3141967841     1     1     9     9
 0.0679581804     1     1     9    12
 0.2223939044     1     1    10     5
 0.3957881763     1     1    10    10
 -0.1104852863     1     1    11     2
 0.1598953502     1     1    11     4
 0.1066315231     1     1    11     6
 0.0208231593     1     1    11     8
 0.4230818801     1     1    11    11
 -0.0396127082     1     1    11    13
 -0.2228711303     1     1    12     3
 -0.1283686211     1     1    12     7
 0.0679581804     1     1    12     9
 0.4508412697     1     1    12    12
 0.0538277879     1     1    13     2
 -0.0573386073     1     1    13     4
 -0.0477811425     1     1    13     6
 -0.0204580974     1     1    13     8
 -0.0396127082     1     1    13    11
 0.3359361820     1     1    13    13
 -0.9842402089     1     2     2     1
 -0.0070300583     1     2     2     4
 -0.0010857320     1     2     2     6
 -0.0020332255     1     2     2     8
 -0.0034293284     1     2     2    11
 0.0014545488     1     2     2    13
 0.0311401721     1     2     3     3
 0.0084879352     1     2     3     7
 -0.0052028402     1     2     3     9
 -0.0199252033     1     2     3    12
 -0.0666620092     1     2     4     1
 0.0360298347     1     2     4     4
 0.0054502871     1     2     4     6
 0.0077963328     1     2     4     8
 0.0144165582     1     2     4    11
 -0.0060918361     1     2     4    13
 0.0407987485     1     2     5     5
 0.0169337641     1     2     5    10
 0.1066131746     1     2     6     1
 0.0052053259     1     2     6     4
 0.0009935001     1     2     6     6
 0.0011749330     1     2     6     8
 0.0027243513     1     2     6    11
 -0.0011052044     1     2     6    13
 0.0062517326     1     2     7     3
 0.0021290290     1     2     7     7
 -0.0012140442     1     2     7     9
 -0.0051980270     1     2     7    12
 -0.0538140642     1     2     8     1
 0.0056110396     1     2     8     4
 0.0007799367     1     2     8     6
 0.0020661307     1     2     8     8
 0.0030063423     1     2     8    11
 -0.0009447635     1     2     8    13
 -0.0034678278     1     2     9     3
 -0.0010639727     1     2     9     7
 0.0008727979     1     2     9     9
 0.0024811918     1     2     9    12
 0.0128844064     1     2    10     5
 0.0072397906     1     2    10    10
 0.1104852863     1     2    11     1
 0.0118785010     1     2    11     4
 0.0022737278     1     2    11     6
 0.0034979037     1     2    11     8
 0.0061700418     1     2    11    11
 -0.0024051993     1     2    11    13
 -0.0135733365     1     2    12     3
 -0.0047968992     1     2    12     7
 0.0025996271     1     2    12     9
 0.0110191874     1     2    12    12
 -0.0538277879     1     2    13     1
 -0.0046206817     1     2    13     4
 -0.0008273099     1     2    13     6
 -0.0010353910     1     2    13     8
 -0.0021748501     1     2    13    11
 0.0007070342     1     2    13    13
 0.0015989915     1     3     2     7
 -0.0014035717     1     3     2     9
 -0.0049968047     1     3     2    12
 -0.8706573272     1     3     3     1
 -0.0311401721     1     3     3     2
 -0.0105353208     1     3     3     4
 0.0035353911     1     3     3     6
 -0.0036153715     1     3     3     8
 0.0002389591     1     3     3    11
 -0.0032739372     1     3     3    13
 -0.0006957731     1     3     4     7
 0.0028187089     1     3     4     9
 0.0021257401     1     3     4    12
 0.0014982086     1     3     6     7
 0.0003195333     1     3     6     9
 -0.0012934260     1     3     6    12
 -0.1170064049     1     3     7     1
 -0.0062517326     1     3     7     2
 -0.0022021546     1     3     7     4
 0.0026713243     1     3     7     6
 -0.0014458644     1     3     7     8
 0.0016297356     1     3     7    11
 -0.0004008552     1     3     7    13
 -0.0007572749     1     3     8     7
 -0.0007751833     1     3     8     9
 0.0021316056     1     3     8    12
 0.0453310748     1     3     9     1
 0.0034678278     1     3     9     2
 0.0011033717     1     3     9     4
 -0.0008631783     1     3     9     6
 -0.0009811571     1     3     9     8
 -0.0025608445     1     3     9    11
 0.0013768644     1     3     9    13
 0.0010690566     1     3    11     7
 -0.0009720036     1     3    11     9
 -0.0027702618     1     3    11    12
 0.2228711303     1     3    12     1
 0.0135733365     1     3    12     2
 0.0046640942     1     3    12     4
 -0.0042535930     1     3    12     6
 0.0035196010     1     3    12     8
 -0.0046196756     1     3    12    11
 0.0020198945     1     3    12    13
 0.0007334397     1     3    13     7
 0.0002451123     1     3    13     9
 -0.0008163470     1     3    13    12
 -0.0666620092     1     4     2     1
 0.0070300583     1     4     2     2
 -0.0002566040     1     4     2     6
 0.0015940108     1     4     2     8
 0.0013907338     1     4     2    11
 -0.0010085059     1     4     2    13
 0.0105353208     1     4     3     3
 0.0016572870     1     4     3     7
 0.0016808866     1     4     3     9
 -0.0028730232     1     4     3    12
 -0.9502137219     1     4     4     1
 -0.0360298347     1     4     4     2
 0.0068983234     1     4     4     6
 -0.0022963486     1     4     4     8
 0.0095164806     1     4     4    11
 -0.0014881595     1     4     4    13
 0.0136181705     1     4     5     5
 0.0055245959     1     4     5    10
 -0.0595204319     1     4     6     1
 -0.0052053259     1     4     6     2
 0.0026133677     1     4     6     6
 0.0006934236     1     4     6     8
 0.0031379084     1     4     6    11
 -0.0012181233     1     4     6    13
 0.0022021546     1     4     7     3
 0.0014562313     1     4     7     7
 -0.0007881183     1     4     7     9
 -0.0017469982     1     4     7    12
 -0.1227868444     1     4     8     1
 -0.0056110396     1     4     8     2
 0.0025457235     1     4     8     6
 -0.0018466284     1     4     8     8
 0.0009179942     1     4     8    11
 -0.0018117621     1     4     8    13
 -0.0011033717     1     4     9     3
 -0.0015022594     1     4     9     7
 -0.0001124645     1     4     9     9
 0.0035092497     1     4     9    12
 0.0045306437     1     4    10     5
 0.0022506188     1     4    10    10
 -0.1598953502     1     4    11     1
 -0.0118785010     1     4    11     2
 0.0044756800     1     4    11     6
 -0.0020892320     1     4    11     8
 0.0061892904     1     4    11    11
 -0.0025326987     1     4    11    13
 -0.0046640942     1     4    12     3
 -0.0019043656     1     4    12     7
 0.0019502377     1     4    12     9
 0.0047836625     1     4    12    12
 0.0573386073     1     4    13     1
 0.0046206817     1     4    13     2
 -0.0022069500     1     4    13     6
 -0.0011576285     1     4    13     8
 -0.0036452578     1     4    13    11
 0.0029606313     1     4    13    13
 0.0027715896     1     5     2    10
 0.0006768471     1     5     4    10
 -0.9955007077     1     5     5     1
 -0.0407987485     1     5     5     2
 -0.0136181705     1     5     5     4
 0.0063902338     1     5     5     6
 -0.0071828777     1     5     5     8
 0.0076153219     1     5     5    11
 -0.0034949891     1     5     5    13
 0.0020995004     1     5     6    10
 0.0001805815     1     5     8    10
 -0.2223939044     1     5    10     1
 -0.0128844064     1     5    10     2
 -0.0045306437     1     5    10     4
 0.0048352753     1     5    10     6
 -0.0028270041     1     5    10     8
 0.0025486041     1     5    10    11
 -0.0015295814     1     5    10    13
 -0.0008240151     1     5    11    10
 -0.0000049349     1     5    13    10
 0.1066131746     1     6     2     1
 0.0010857320     1     6     2     2
 0.0002566040     1     6     2     4
 0.0004044953     1     6     2     8
 0.0004732935     1     6     2    11
 -0.0002887130     1     6     2    13
 -0.0035353911     1     6     3     3
 -0.0011632942     1     6     3     7
 0.0011933680     1     6     3     9
 0.0029828718     1     6     3    12
 -0.0595204319     1     6     4     1
 -0.0054502871     1     6     4     2
 -0.0068983234     1     6     4     4
 -0.0018638026     1     6     4     8
 -0.0013734868     1     6     4    11
 0.0010002062     1     6     4    13
 -0.0063902338     1     6     5     5
 -0.0027110221     1     6     5    10
 -0.2797103329     1     6     6     1
 -0.0009935001     1     6     6     2
 -0.0026133677     1     6     6     4
 -0.0004746508     1     6     6     8
 -0.0006375662     1     6     6    11
 0.0002569288     1     6     6    13
 -0.0026713243     1     6     7     3
 -0.0006576416     1     6     7     7
 0.0003738180     1     6     7     9
 0.0018190134     1     6     7    12
 0.0147239390     1     6     8     1
 -0.0007799367     1     6     8     2
 -0.0025457235     1     6     8     4
 -0.0009760898     1     6     8     8
 -0.0010520461     1     6     8    11
 0.0001346790     1     6     8    13
 0.0008631783     1     6     9     3
 0.0000537075     1     6     9     7
 -0.0002063217     1     6     9     9
 -0.0001140318     1     6     9    12
 -0.0048352753     1     6    10     5
 -0.0022796320     1     6    10    10
 -0.1066315231     1     6    11     1
 -0.0022737278     1     6    11     2
 -0.0044756800     1     6    11     4
 -0.0014779520     1     6    11     8
 -0.0009697657     1     6    11    11
 0.0003718647     1     6    11    13
 0.0042535930     1     6    12     3
 0.0012307079     1     6    12     7
 -0.0005308060     1     6    12     9
 -0.0027678909     1     6    12    12
 0.0477811425     1     6    13     1
 0.0008273099     1     6    13     2
 0.0022069500     1     6    13     4
 0.0003026575     1     6    13     8
 0.0003598742     1     6    13    11
 0.0001564925     1     6    13    13
 -0.0015989915     1     7     2     3
 -0.0001472859     1     7     2     9
 -0.0003768919     1     7     2    12
 -0.1170064049     1     7     3     1
 -0.0084879352     1     7     3     2
 -0.0016572870     1     7     3     4
 0.0011632942     1     7     3     6
 -0.0007059200     1     7     3     8
 0.0005264931     1     7     3    11
 -0.0011232664     1     7     3    13
 0.0006957731     1     7     4     3
 0.0007171957     1     7     4     9
 0.0001695085     1     7     4    12
 -0.0014982086     1     7     6     3
 0.0003196599     1     7     6     9
 0.0005860526     1     7     6    12
 -0.2410365941     1     7     7     1
 -0.0021290290     1     7     7     2
 -0.0014562313     1     7     7     4
 0.0006576416     1     7     7     6
 -0.0006002654     1     7     7     8
 0.0001847846     1     7     7    11
 -0.0000092375     1     7     7    13
 0.0007572749     1     7     8     3
 -0.0003365566     1     7     8     9
 0.0001084830     1     7     8    12
 0.0305085859     1     7     9     1
 0.0010639727     1     7     9     2
 0.0015022594     1     7     9     4
 -0.0000537075     1     7     9     6
 -0.0000059708     1     7     9     8
 -0.0002238297     1     7     9    11
 0.0001974957     1     7     9    13
 -0.0010690566     1     7    11     3
 -0.0001068884     1     7    11     9
 -0.0000903746     1     7    11    12
 0.1283686211     1     7    12     1
 0.0047968992     1     7    12     2
 0.0019043656     1     7    12     4
 -0.0012307079     1     7    12     6
 0.0011416976     1     7    12     8
 -0.0012400483     1     7    12    11
 0.0005576664     1     7    12    13
 -0.0007334397     1     7    13     3
 0.0001802293     1     7    13     9
 0.0002370799     1     7    13    12
 -0.0538140642     1     8     2     1
 0.0020332255     1     8     2     2
 -0.0015940108     1     8     2     4
 -0.0004044953     1     8     2     6
 -0.0005319372     1     8     2    11
 0.0001127390     1     8     2    13
 0.0036153715     1     8     3     3
 0.0007059200     1     8     3     7
 0.0001912313     1     8     3     9
 -0.0014723744     1     8     3    12
 -0.1227868444     1     8     4     1
 -0.0077963328     1     8     4     2
 0.0022963486     1     8     4     4
 0.0018638026     1     8     4     6
 0.0030387471     1     8     4    11
 -0.0006616036     1     8     4    13
 0.0071828777     1     8     5     5
 0.0030516168     1     8     5    10
 0.0147239390     1     8     6     1
 -0.0011749330     1     8     6     2
 -0.0006934236     1     8     6     4
 0.0004746508     1     8     6     6
 0.0004275815     1     8     6    11
 -0.0001688674     1     8     6    13
 0.0014458644     1     8     7     3
 0.0006002654     1     8     7     7
 -0.0003304373     1     8     7     9
 -0.0010342192     1     8     7    12
 -0.3089779228     1     8     8     1
 -0.0020661307     1     8     8     2
 0.0018466284     1     8     8     4
 0.0009760898     1     8     8     6
 0.0011715828     1     8     8    11
 -0.0007865596     1     8     8    13
 0.0009811571     1     8     9     3
 0.0000059708     1     8     9     7
 -0.0002209936     1     8     9     9
 0.0000020409     1     8     9    12
 0.0028270041     1     8    10     5
 0.0013299555     1     8    10    10
 -0.0208231593     1     8    11     1
 -0.0034979037     1     8    11     2
 0.0020892320     1     8    11     4
 0.0014779520     1     8    11     6
 0.0024798109     1     8    11    11
 -0.0010062756     1     8    11    13
 -0.0035196010     1     8    12     3
 -0.0011416976     1     8    12     7
 0.0008342526     1     8    12     9
 0.0027180623     1     8    12    12
 0.0204580974     1     8    13     1
 0.0010353910     1     8    13     2
 0.0011576285     1     8    13     4
 -0.0003026575     1     8    13     6
 -0.0003359436     1     8    13    11
 0.0004607495     1     8    13    13
 0.0014035717     1     9     2     3
 0.0001472859     1     9     2     7
 -0.0001266040     1     9     2    12
 0.0453310748     1     9     3     1
 0.0052028402     1     9     3     2
 -0.0016808866     1     9     3     4
 -0.0011933680     1     9     3     6
 -0.0001912313     1     9     3     8
 -0.0015987205     1     9     3    11
 0.0011283271     1     9     3    13
 -0.0028187089     1     9     4     3
 -0.0007171957     1     9     4     7
 0.0015528559     1     9     4    12
 -0.0003195333     1     9     6     3
 -0.0003196599     1     9     6     7
 0.0004173282     1     9     6    12
 0.0305085859     1     9     7     1
 0.0012140442     1     9     7     2
 0.0007881183     1     9     7     4
 -0.0003738180     1     9     7     6
 0.0003304373     1     9     7     8
 -0.0001181714     1     9     7    11
 0.0000183379     1     9     7    13
 0.0007751833     1     9     8     3
 0.0003365566     1     9     8     7
 -0.0008307218     1     9     8    12
 -0.3141967841     1     9     9     1
 -0.0008727979     1     9     9     2
 0.0001124645     1     9     9     4
 0.0002063217     1     9     9     6
 0.0002209936     1     9     9     8
 0.0005776823     1     9     9    11
 -0.0002772918     1     9     9    13
 0.0009720036     1     9    11     3
 0.0001068884     1     9    11     7
 -0.0001907120     1     9    11    12
 -0.0679581804     1     9    12     1
 -0.0025996271     1     9    12     2
 -0.0019502377     1     9    12     4
 0.0005308060     1     9    12     6
 -0.0008342526     1     9    12     8
 0.0002968889     1     9    12    11
 -0.0001619209     1     9    12    13
 -0.0002451123     1     9    13     3
 -0.0001802293     1     9    13     7
 0.0002758191     1     9    13    12
 -0.0027715896     1    10     2     5
 -0.0006768471     1    10     4     5
 -0.2223939044     1    10     5     1
 -0.0169337641     1    10     5     2
 -0.0055245959     1    10     5     4
 0.0027110221     1    10     5     6
 -0.0030516168     1    10     5     8
 0.0032880339     1    10     5    11
 -0.0014954207     1    10     5    13
 -0.0020995004     1    10     6     5
 -0.0001805815     1    10     8     5
 -0.3957881763     1    10    10     1
 -0.0072397906     1    10    10     2
 -0.0022506188     1    10    10     4
 0.0022796320     1    10    10     6
 -0.0013299555     1    10    10     8
 0.0013208494     1    10    10    11
 -0.0007640995     1    10    10    13
 0.0008240151     1    10    11     5
 0.0000049349     1    10    13     5
 0.1104852863     1    11     2     1
 0.0034293284     1    11     2     2
 -0.0013907338     1    11     2     4
 -0.0004732935     1    11     2     6
 0.0005319372     1    11     2     8
 -0.0002270320     1    11     2    13
 -0.0002389591     1    11     3     3
 -0.0005264931     1    11     3     7
 0.0015987205     1    11     3     9
 0.0018221275     1    11     3    12
 -0.1598953502     1    11     4     1
 -0.0144165582     1    11     4     2
 -0.0095164806     1    11     4     4
 0.0013734868     1    11     4     6
 -0.0030387471     1    11     4     8
 0.0010987761     1    11     4    13
 -0.0076153219     1    11     5     5
 -0.0032880339     1    11     5    10
 -0.1066315231     1    11     6     1
 -0.0027243513     1    11     6     2
 -0.0031379084     1    11     6     4
 0.0006375662     1    11     6     6
 -0.0004275815     1    11     6     8
 0.0000118623     1    11     6    13
 -0.0016297356     1    11     7     3
 -0.0001847846     1    11     7     7
 0.0001181714     1    11     7     9
 0.0011511283     1    11     7    12
 -0.0208231593     1    11     8     1
 -0.0030063423     1    11     8     2
 -0.0009179942     1    11     8     4
 0.0010520461     1    11     8     6
 -0.0011715828     1    11     8     8
 -0.0006687692     1    11     8    13
 0.0025608445     1    11     9     3
 0.0002238297     1    11     9     7
 -0.0005776823     1    11     9     9
 -0.0004879099     1    11     9    12
 -0.0025486041     1    11    10     5
 -0.0013208494     1    11    10    10
 -0.4230818801     1    11    11     1
 -0.0061700418     1    11    11     2
 -0.0061892904     1    11    11     4
 0.0009697657     1    11    11     6
 -0.0024798109     1    11    11     8
 -0.0000418761     1    11    11    13
 0.0046196756     1    11    12     3
 0.0012400483     1    11    12     7
 -0.0002968889     1    11    12     9
 -0.0026826054     1    11    12    12
 0.0396127082     1    11    13     1
 0.0021748501     1    11    13     2
 0.0036452578     1    11    13     4
 -0.0003598742     1    11    13     6
 0.0003359436     1    11    13     8
 0.0006953381     1    11    13    13
 0.0049968047     1    12     2     3
 0.0003768919     1    12     2     7
 0.0001266040     1    12     2     9
 0.2228711303     1    12     3     1
 0.0199252033     1    12     3     2
 0.0028730232     1    12     3     4
 -0.0029828718     1    12     3     6
 0.0014723744     1    12     3     8
 -0.0018221275     1    12     3    11
 0.0028212665     1    12     3    13
 -0.0021257401     1    12     4     3
 -0.0001695085     1    12     4     7
 -0.0015528559     1    12     4     9
 0.0012934260     1    12     6     3
 -0.0005860526     1    12     6     7
 -0.0004173282     1    12     6     9
 0.1283686211     1    12     7     1
 0.0051980270     1    12     7     2
 0.0017469982     1    12     7     4
 -0.0018190134     1    12     7     6
 0.0010342192     1    12     7     8
 -0.0011511283     1    12     7    11
 0.0003235301     1    12     7    13
 -0.0021316056     1    12     8     3
 -0.0001084830     1    12     8     7
 0.0008307218     1    12     8     9
 -0.0679581804     1    12     9     1
 -0.0024811918     1    12     9     2
 -0.0035092497     1    12     9     4
 0.0001140318     1    12     9     6
 -0.0000020409     1    12     9     8
 0.0004879099     1    12     9    11
 -0.0004374342     1    12     9    13
 0.0027702618     1    12    11     3
 0.0000903746     1    12    11     7
 0.0001907120     1    12    11     9
 -0.4508412697     1    12    12     1
 -0.0110191874     1    12    12     2
 -0.0047836625     1    12    12     4
 0.0027678909     1    12    12     6
 -0.0027180623     1    12    12     8
 0.0026826054     1    12    12    11
 -0.0012229906     1    12    12    13
 0.0008163470     1    12    13     3
 -0.0002370799     1    12    13     7
 -0.0002758191     1    12    13     9
 -0.0538277879     1    13     2     1
 -0.0014545488     1    13     2     2
 0.0010085059     1    13     2     4
 0.0002887130     1    13     2     6
 -0.0001127390     1    13     2     8
 0.0002270320     1    13     2    11
 0.0032739372     1    13     3     3
 0.0011232664     1    13     3     7
 -0.0011283271     1    13     3     9
 -0.0028212665     1    13     3    12
 0.0573386073     1    13     4     1
 0.0060918361     1    13     4     2
 0.0014881595     1    13     4     4
 -0.0010002062     1    13     4     6
 0.0006616036     1    13     4     8
 -0.0010987761     1    13     4    11
 0.0034949891     1    13     5     5
 0.0014954207     1    13     5    10
 0.0477811425     1    13     6     1
 0.0011052044     1    13     6     2
 0.0012181233     1    13     6     4
 -0.0002569288     1    13     6     6
 0.0001688674     1    13     6     8
 -0.0000118623     1    13     6    11
 0.0004008552     1    13     7     3
 0.0000092375     1    13     7     7
 -0.0000183379     1    13     7     9
 -0.0003235301     1    13     7    12
 0.0204580974     1    13     8     1
 0.0009447635     1    13     8     2
 0.0018117621     1    13     8     4
 -0.0001346790     1    13     8     6
 0.0007865596     1    13     8     8
 0.0006687692     1    13     8    11
 -0.0013768644     1    13     9     3
 -0.0001974957     1    13     9     7
 0.0002772918     1    13     9     9
 0.0004374342     1    13     9    12
 0.0015295814     1    13    10     5
 0.0007640995     1    13    10    10
 0.0396127082     1    13    11     1
 0.0024051993     1    13    11     2
 0.0025326987     1    13    11     4
 -0.0003718647     1    13    11     6
 0.0010062756     1    13    11     8
 0.0000418761     1    13    11    11
 -0.0020198945     1    13    12     3
 -0.0005576664     1    13    12     7
 0.0001619209     1    13    12     9
 0.0012229906     1    13    12    12
 -0.3359361820     1    13    13     1
 -0.0007070342     1    13    13     2
 -0.0029606313     1    13    13     4
 -0.0001564925     1    13    13     6
 -0.0004607495     1    13    13     8
 -0.0006953381     1    13    13    11
 -0.9842402089     2     1     1     2
 -0.0666620092     2     1     1     4
 0.1066131746     2     1     1     6
 -0.0538140642     2     1     1     8
 0.1104852863     2     1     1    11
 -0.0538277879     2     1     1    13
 0.0311401721     2     1     3     3
 0.0062517326     2     1     3     7
 -0.0034678278     2     1     3     9
 -0.0135733365     2     1     3    12
 -0.0070300583     2     1     4     2
 0.0360298347     2     1     4     4
 0.0052053259     2     1     4     6
 0.0056110396     2     1     4     8
 0.0118785010     2     1     4    11
 -0.0046206817     2     1     4    13
 0.0407987485     2     1     5     5
 0.0128844064     2     1     5    10
 -0.0010857320     2     1     6     2
 0.0054502871     2     1     6     4
 0.0009935001     2     1     6     6
 0.0007799367     2     1     6     8
 0.0022737278     2     1     6    11
 -0.0008273099     2     1     6    13
 0.0084879352     2     1     7     3
 0.0021290290     2     1     7     7
 -0.0010639727     2     1     7     9
 -0.0047968992     2     1     7    12
 -0.0020332255     2     1     8     2
 0.0077963328     2     1     8     4
 0.0011749330     2     1     8     6
 0.0020661307     2     1     8     8
 0.0034979037     2     1     8    11
 -0.0010353910     2     1     8    13
 -0.0052028402     2     1     9     3
 -0.0012140442     2     1     9     7
 0.0008727979     2     1     9     9
 0.0025996271     2     1     9    12
 0.0169337641     2     1    10     5
 0.0072397906     2     1    10    10
 -0.0034293284     2     1    11     2
 0.0144165582     2     1    11     4
 0.0027243513     2     1    11     6
 0.0030063423     2     1    11     8
 0.0061700418     2     1    11    11
 -0.0021748501     2     1    11    13
 -0.0199252033     2     1    12     3
 -0.0051980270     2     1    12     7
 0.0024811918     2     1    12     9
 0.0110191874     2     1    12    12
 0.0014545488     2     1    13     2
 -0.0060918361     2     1    13     4
 -0.0011052044     2     1    13     6
 -0.0009447635     2     1    13     8
 -0.0024051993     2     1    13    11
 0.0007070342     2     1    13    13
 0.9842402089     2     2     1     1
 0.0070300583     2     2     1     4
 0.0010857320     2     2     1     6
 0.0020332255     2     2     1     8
 0.0034293284     2     2     1    11
 -0.0014545488     2     2     1    13
 0.5284740570     2     2     3     3
 0.0495378648     2     2     3     7
 -0.0080907142     2     2     3     9
 -0.0800799559     2     2     3    12
 0.0070300583     2     2     4     1
 0.5506184920     2     2     4     4
 0.0263518702     2     2     4     6
 0.0523353786     2     2     4     8
 0.0627794349     2     2     4    11
 -0.0165719831     2     2     4    13
 0.5772818956     2     2     5     5
 0.0931998894     2     2     5    10
 0.0010857320     2     2     6     1
 0.0263518702     2     2     6     4
 0.2547981719     2     2     6     6
 -0.0067777180     2     2     6     8
 0.0674880092     2     2     6    11
 -0.0310971642     2     2     6    13
 0.0495378648     2     2     7     3
 0.2241663456     2     2     7     7
 -0.0222517670     2     2     7     9
 -0.0819101806     2     2     7    12
 0.0020332255     2     2     8     1
 0.0523353786     2     2     8     4
 -0.0067777180     2     2     8     6
 0.2737744415     2     2     8     8
 0.0014601430     2     2     8    11
 -0.0218322450     2     2     8    13
 -0.0080907142     2     2     9     3
 -0.0222517670     2     2     9     7
 0.2970634736     2     2     9     9
 0.0471102227     2     2     9    12
 0.0931998894     2     2    10     5
 0.3241003565     2     2    10    10
 0.0034293284     2     2    11     1
 0.0627794349     2     2    11     4
 0.0674880092     2     2    11     6
 0.0014601430     2     2    11     8
 0.3472723700     2     2    11    11
 -0.0139563242     2     2    11    13
 -0.0800799559     2     2    12     3
 -0.0819101806     2     2    12     7
 0.0471102227     2     2    12     9
 0.3500742881     2     2    12    12
 -0.0014545488     2     2    13     1
 -0.0165719831     2     2    13     4
 -0.0310971642     2     2    13     6
 -0.0218322450     2     2    13     8
 -0.0139563242     2     2    13    11
 0.3254984472     2     2    13    13
 -0.0015989915     2     3     1     7
 0.0014035717     2     3     1     9
 0.0049968047     2     3     1    12
 -0.0311401721     2     3     3     1
 -0.5284740570     2     3     3     2
 -0.0015259419     2     3     3     4
 0.0485618415     2     3     3     6
 -0.0247448260     2     3     3     8
 0.0613554245     2     3     3    11
 -0.0073607291     2     3     3    13
 0.0058729852     2     3     4     7
 -0.0198242499     2     3     4     9
 -0.0153289719     2     3     4    12
 -0.0246911184     2     3     6     7
 -0.0000043935     2     3     6     9
 0.0196394198     2     3     6    12
 -0.0084879352     2     3     7     1
 -0.0495378648     2     3     7     2
 0.0003626607     2     3     7     4
 -0.0170848959     2     3     7     6
 0.0027338154     2     3     7     8
 -0.0042760666     2     3     7    11
 -0.0101002797     2     3     7    13
 0.0070624781     2     3     8     7
 0.0154184793     2     3     8     9
 -0.0201717649     2     3     8    12
 0.0052028402     2     3     9     1
 0.0080907142     2     3     9     2
 -0.0033260506     2     3     9     4
 -0.0006511543     2     3     9     6
 0.0178477211     2     3     9     8
 0.0182965136     2     3     9    11
 -0.0087179079     2     3     9    13
 -0.0137341488     2     3    11     7
 0.0175477958     2     3    11     9
 0.0347184122     2     3    11    12
 0.0199252033     2     3    12     1
 0.0800799559     2     3    12     2
 -0.0005017123     2     3    12     4
 0.0073290961     2     3    12     6
 -0.0122895898     2     3    12     8
 0.0203039869     2     3    12    11
 0.0041594898     2     3    12    13
 -0.0076041593     2     3    13     7
 -0.0106565116     2     3    13     9
 -0.0013558174     2     3    13    12
 0.0666620092     2     4     1     1
 -0.0070300583     2     4     1     2
 0.0002566040     2     4     1     6