&FCI NORB=  9,NELEC=  6,MS2=0,
 ORBSYM=1,1,1,1,1,1,1,1,1
 ISYM=1,
&END
 0.1367514870     1     1     2     2
 0.0163225882     1     1     2     4
 -0.0087631387     1     1     2     6
 -0.0012644000     1     1     2     8
 0.1745895748     1     1     3     3
 0.0324541107     1     1     3     5
 0.0004291371     1     1     3     7
 -0.0016962845     1     1     3     9
 0.0163225882     1     1     4     2
 0.1911999243     1     1     4     4
 0.0386550106     1     1     4     6
 -0.0026254110     1     1     4     8
 0.0324541107     1     1     5     3
 0.1872689547     1     1     5     5
 0.0107870620     1     1     5     7
 0.0208762067     1     1     5     9
 -0.0087631387     1     1     6     2
 0.0386550106     1     1     6     4
 0.2148117474     1     1     6     6
 -0.0314177942     1     1     6     8
 0.0004291371     1     1     7     3
 0.0107870620     1     1     7     5
 0.1877295021     1     1     7     7
 -0.0342734514     1     1     7     9
 -0.0012644000     1     1     8     2
 -0.0026254110     1     1     8     4
 -0.0314177942     1     1     8     6
 0.1652222843     1     1     8     8
 -0.0016962845     1     1     9     3
 0.0208762067     1     1     9     5
 -0.0342734514     1     1     9     7
 0.1693184717     1     1     9     9
 -0.1367514870     1     2     2     1
 -0.0492171717     1     2     2     3
 -0.0010842285     1     2     2     5
 -0.0039825507     1     2     2     7
 0.0053461261     1     2     2     9
 0.0444419894     1     2     3     4
 0.0214268356     1     2     3     6
 -0.0030151242     1     2     3     8
 -0.0163225882     1     2     4     1
 0.0122082576     1     2     4     3
 -0.0507352060     1     2     4     5
 -0.0071020847     1     2     4     7
 -0.0113568362     1     2     4     9
 -0.0359908382     1     2     5     4
 0.0559885984     1     2     5     6
 -0.0170396107     1     2     5     8
 0.0087631387     1     2     6     1
 0.0156152624     1     2     6     3
 0.0448999112     1     2     6     5
 -0.0063850395     1     2     6     7
 -0.0083107828     1     2     6     9
 -0.0050325450     1     2     7     4
 -0.0057097185     1     2     7     6
 -0.0508791101     1     2     7     8
 0.0012644000     1     2     8     1
 0.0002994381     1     2     8     3
 -0.0145769532     1     2     8     5
 -0.0500920539     1     2     8     7
 -0.0313645678     1     2     8     9
 -0.0117821660     1     2     9     4
 -0.0048287611     1     2     9     6
 -0.0315561989     1     2     9     8
 0.0492171717     1     3     2     2
 0.0322337318     1     3     2     4
 0.0058115732     1     3     2     6
 -0.0033145623     1     3     2     8
 -0.1745895748     1     3     3     1
 0.0320712505     1     3     3     5
 -0.0047181145     1     3     3     7
 0.0108423377     1     3     3     9
 -0.0122082576     1     3     4     2
 0.0104213535     1     3     4     4
 0.0365250981     1     3     4     6
 -0.0100468457     1     3     4     8
 -0.0324541107     1     3     5     1
 0.0010230669     1     3     5     5
 -0.0000725383     1     3     5     7
 0.0065708305     1     3     5     9
 -0.0156152624     1     3     6     2
 0.0153853256     1     3     6     4
 0.0218326417     1     3     6     6
 -0.0124050053     1     3     6     8
 -0.0004291371     1     3     7     1
 0.0014602828     1     3     7     5
 0.0162403796     1     3     7     7
 -0.0292558156     1     3     7     9
 -0.0002994381     1     3     8     2
 -0.0080294711     1     3     8     4
 -0.0119941071     1     3     8     6
 -0.0071247253     1     3     8     8
 0.0016962845     1     3     9     1
 -0.0003329321     1     3     9     5
 -0.0288705333     1     3     9     7
 0.0038999477     1     3     9     9
 -0.0163225882     1     4     2     1
 -0.0322337318     1     4     2     3
 -0.0147443678     1     4     2     5
 -0.0020695397     1     4     2     7
 0.0004253298     1     4     2     9
 -0.0444419894     1     4     3     2
 0.0211397725     1     4     3     6
 -0.0020173746     1     4     3     8
 -0.1911999243     1     4     4     1
 -0.0104213535     1     4     4     3
 -0.0014006221     1     4     4     5
 -0.0133850556     1     4     4     7
 -0.0010064123     1     4     4     9
 0.0359908382     1     4     5     2
 0.0103672043     1     4     5     6
 -0.0118769007     1     4     5     8
 -0.0386550106     1     4     6     1
 -0.0153853256     1     4     6     3
 0.0093275696     1     4     6     5
 -0.0018399934     1     4     6     7
 0.0086578706     1     4     6     9
 0.0050325450     1     4     7     2
 0.0010341178     1     4     7     6
 -0.0093912745     1     4     7     8
 0.0026254110     1     4     8     1
 0.0080294711     1     4     8     3
 -0.0023222068     1     4     8     5
 -0.0084153635     1     4     8     7
 0.0063714328     1     4     8     9
 0.0117821660     1     4     9     2
 0.0013050863     1     4     9     6
 0.0061118476     1     4     9     8
 0.0010842285     1     5     2     2
 0.0147443678     1     5     2     4
 0.0110886872     1     5     2     6
 -0.0024626575     1     5     2     8
 -0.0324541107     1     5     3     1
 -0.0320712505     1     5     3     3
 -0.0015328211     1     5     3     7
 0.0069037626     1     5     3     9
 0.0507352060     1     5     4     2
 0.0014006221     1     5     4     4
 0.0010396347     1     5     4     6
 -0.0095546939     1     5     4     8
 -0.1872689547     1     5     5     1
 -0.0010230669     1     5     5     3
 -0.0133813501     1     5     5     7
 -0.0017855436     1     5     5     9
 -0.0448999112     1     5     6     2
 -0.0093275696     1     5     6     4
 -0.0052480590     1     5     6     6
 0.0081545566     1     5     6     8
 -0.0107870620     1     5     7     1
 -0.0014602828     1     5     7     3
 -0.0052763340     1     5     7     7
 0.0024976562     1     5     7     9
 0.0145769532     1     5     8     2
 0.0023222068     1     5     8     4
 0.0006745463     1     5     8     6
 -0.0051524269     1     5     8     8
 -0.0208762067     1     5     9     1
 0.0003329321     1     5     9     3
 -0.0009273136     1     5     9     7
 0.0010978728     1     5     9     9
 0.0087631387     1     6     2     1
 -0.0058115732     1     6     2     3
 -0.0110886872     1     6     2     5
 -0.0006753210     1     6     2     7
 -0.0034820217     1     6     2     9
 -0.0214268356     1     6     3     2
 -0.0211397725     1     6     3     4
 -0.0004108982     1     6     3     8
 -0.0386550106     1     6     4     1
 -0.0365250981     1     6     4     3
 -0.0010396347     1     6     4     5
 -0.0028741112     1     6     4     7
 0.0073527843     1     6     4     9
 -0.0559885984     1     6     5     2
 -0.0103672043     1     6     5     4
 0.0074800103     1     6     5     8
 -0.2148117474     1     6     6     1
 -0.0218326417     1     6     6     3
 0.0052480590     1     6     6     5
 -0.0147596048     1     6     6     7
 0.0051515035     1     6     6     9
 0.0057097185     1     6     7     2
 -0.0010341178     1     6     7     4
 -0.0018521909     1     6     7     8
 0.0314177942     1     6     8     1
 0.0119941071     1     6     8     3
 -0.0006745463     1     6     8     5
 0.0025563734     1     6     8     7
 -0.0008839268     1     6     8     9
 0.0048287611     1     6     9     2
 -0.0013050863     1     6     9     4
 0.0013284719     1     6     9     8
 0.0039825507     1     7     2     2
 0.0020695397     1     7     2     4
 0.0006753210     1     7     2     6
 -0.0007870562     1     7     2     8
 -0.0004291371     1     7     3     1
 0.0047181145     1     7     3     3
 0.0015328211     1     7     3     5
 -0.0003852823     1     7     3     9
 0.0071020847     1     7     4     2
 0.0133850556     1     7     4     4
 0.0028741112     1     7     4     6
 -0.0009759110     1     7     4     8
 -0.0107870620     1     7     5     1
 0.0000725383     1     7     5     3
 0.0133813501     1     7     5     5
 0.0034249698     1     7     5     9
 0.0063850395     1     7     6     2
 0.0018399934     1     7     6     4
 0.0147596048     1     7     6     6
 -0.0044085643     1     7     6     8
 -0.1877295021     1     7     7     1
 -0.0162403796     1     7     7     3
 0.0052763340     1     7     7     5
 0.0018549498     1     7     7     9
 0.0500920539     1     7     8     2
 0.0084153635     1     7     8     4
 -0.0025563734     1     7     8     6
 0.0029681412     1     7     8     8
 0.0342734514     1     7     9     1
 0.0288705333     1     7     9     3
 0.0009273136     1     7     9     5
 0.0035745962     1     7     9     9
 0.0012644000     1     8     2     1
 0.0033145623     1     8     2     3
 0.0024626575     1     8     2     5
 0.0007870562     1     8     2     7
 0.0001916311     1     8     2     9
 0.0030151242     1     8     3     2
 0.0020173746     1     8     3     4
 0.0004108982     1     8     3     6
 0.0026254110     1     8     4     1
 0.0100468457     1     8     4     3
 0.0095546939     1     8     4     5
 0.0009759110     1     8     4     7
 0.0002595852     1     8     4     9
 0.0170396107     1     8     5     2
 0.0118769007     1     8     5     4
 -0.0074800103     1     8     5     6
 0.0314177942     1     8     6     1
 0.0124050053     1     8     6     3
 -0.0081545566     1     8     6     5
 0.0044085643     1     8     6     7
 -0.0022123987     1     8     6     9
 0.0508791101     1     8     7     2
 0.0093912745     1     8     7     4
 0.0018521909     1     8     7     6
 -0.1652222843     1     8     8     1
 0.0071247253     1     8     8     3
 0.0051524269     1     8     8     5
 -0.0029681412     1     8     8     7
 0.0034727457     1     8     8     9
 0.0315561989     1     8     9     2
 -0.0061118476     1     8     9     4
 -0.0013284719     1     8     9     6
 -0.0053461261     1     9     2     2
 -0.0004253298     1     9     2     4
 0.0034820217     1     9     2     6
 -0.0001916311     1     9     2     8
 0.0016962845     1     9     3     1
 -0.0108423377     1     9     3     3
 -0.0069037626     1     9     3     5
 0.0003852823     1     9     3     7
 0.0113568362     1     9     4     2
 0.0010064123     1     9     4     4
 -0.0073527843     1     9     4     6
 -0.0002595852     1     9     4     8
 -0.0208762067     1     9     5     1
 -0.0065708305     1     9     5     3
 0.0017855436     1     9     5     5
 -0.0034249698     1     9     5     7
 0.0083107828     1     9     6     2
 -0.0086578706     1     9     6     4
 -0.0051515035     1     9     6     6
 0.0022123987     1     9     6     8
 0.0342734514     1     9     7     1
 0.0292558156     1     9     7     3
 -0.0024976562     1     9     7     5
 -0.0018549498     1     9     7     7
 0.0313645678     1     9     8     2
 -0.0063714328     1     9     8     4
 0.0008839268     1     9     8     6
 -0.0034727457     1     9     8     8
 -0.1693184717     1     9     9     1
 -0.0038999477     1     9     9     3
 -0.0010978728     1     9     9     5
 -0.0035745962     1     9     9     7
 -0.1367514870     2     1     1     2
 -0.0163225882     2     1     1     4
 0.0087631387     2     1     1     6
 0.0012644000     2     1     1     8
 -0.0492171717     2     1     3     2
 0.0122082576     2     1     3     4
 0.0156152624     2     1     3     6
 0.0002994381     2     1     3     8
 0.0444419894     2     1     4     3
 -0.0359908382     2     1     4     5
 -0.0050325450     2     1     4     7
 -0.0117821660     2     1     4     9
 -0.0010842285     2     1     5     2
 -0.0507352060     2     1     5     4
 0.0448999112     2     1     5     6
 -0.0145769532     2     1     5     8
 0.0214268356     2     1     6     3
 0.0559885984     2     1     6     5
 -0.0057097185     2     1     6     7
 -0.0048287611     2     1     6     9
 -0.0039825507     2     1     7     2
 -0.0071020847     2     1     7     4
 -0.0063850395     2     1     7     6
 -0.0500920539     2     1     7     8
 -0.0030151242     2     1     8     3
 -0.0170396107     2     1     8     5
 -0.0508791101     2     1     8     7
 -0.0315561989     2     1     8     9
 0.0053461261     2     1     9     2
 -0.0113568362     2     1     9     4
 -0.0083107828     2     1     9     6
 -0.0313645678     2     1     9     8
 0.1367514870     2     2     1     1
 0.0492171717     2     2     1     3
 0.0010842285     2     2     1     5
 0.0039825507     2     2     1     7
 -0.0053461261     2     2     1     9
 0.0492171717     2     2     3     1
 0.1421728418     2     2     3     3
 0.0077982556     2     2     3     5
 0.0025976594     2     2     3     7
 -0.0071466518     2     2     3     9
 0.1731431472     2     2     4     4
 0.0075050358     2     2     4     6
 0.0068107805     2     2     4     8
 0.0010842285     2     2     5     1
 0.0077982556     2     2     5     3
 0.1822915648     2     2     5     5
 0.0082123854     2     2     5     7
 0.0174120187     2     2     5     9
 0.0075050358     2     2     6     4
 0.1858406197     2     2     6     6
 -0.0167658696     2     2     6     8
 0.0039825507     2     2     7     1
 0.0025976594     2     2     7     3
 0.0082123854     2     2     7     5
 0.1703794031     2     2     7     7
 -0.0035287583     2     2     7     9
 0.0068107805     2     2     8     4
 -0.0167658696     2     2     8     6
 0.1722246366     2     2     8     8
 -0.0053461261     2     2     9     1
 -0.0071466518     2     2     9     3
 0.0174120187     2     2     9     5
 -0.0035287583     2     2     9     7
 0.1655526379     2     2     9     9
 -0.0492171717     2     3     1     2
 -0.0322337318     2     3     1     4
 -0.0058115732     2     3     1     6
 0.0033145623     2     3     1     8
 -0.1421728418     2     3     3     2
 -0.0570910785     2     3     3     4
 -0.0043052261     2     3     3     6
 0.0032057957     2     3     3     8
 -0.0444419894     2     3     4     1
 0.0565108485     2     3     4     5
 -0.0001669390     2     3     4     7
 0.0116359621     2     3     4     9
 -0.0077982556     2     3     5     2
 0.0299766005     2     3     5     4
 -0.0503902933     2     3     5     6
 0.0112542057     2     3     5     8
 -0.0214268356     2     3     6     1
 -0.0327065234     2     3     6     5
 0.0068987232     2     3     6     7
 0.0138312622     2     3     6     9
 -0.0025976594     2     3     7     2
 -0.0006652414     2     3     7     4
 0.0061288755     2     3     7     6
 0.0484972009     2     3     7     8
 0.0030151242     2     3     8     1
 0.0085555211     2     3     8     5
 0.0476197768     2     3     8     7
 0.0379125767     2     3     8     9
 0.0071466518     2     3     9     2
 0.0112948257     2     3     9     4
 0.0072625615     2     3     9     6
 0.0384071754     2     3     9     8
 0.0163225882     2     4     1     1
 0.0322337318     2     4     1     3
 0.0147443678     2     4     1     5
 0.0020695397     2     4     1     7
 -0.0004253298     2     4     1     9
 -0.0122082576     2     4     3     1
 0.0570910785     2     4     3     3
 0.0265342480     2     4     3     5
 0.0004983024     2     4     3     7
 0.0003411364     2     4     3     9
 -0.1731431472     2     4     4     2
 0.0367155440     2     4     4     6
 0.0018656910     2     4     4     8
 0.0507352060     2     4     5     1
 -0.0299766005     2     4     5     3
 0.0042118747     2     4     5     5
 0.0116502352     2     4     5     7
 0.0106810774     2     4     5     9
 -0.0075050358     2     4     6     2
 0.0204783365     2     4     6     6
 -0.0160748526     2     4     6     8
 0.0071020847     2     4     7     1
 0.0006652414     2     4     7     3
 0.0036649769     2     4     7     5
 0.0179899589     2     4     7     7
 -0.0244048837     2     4     7     9
 -0.0068107805     2     4     8     2
 -0.0092877582     2     4     8     6
 -0.0006308241     2     4     8     8
 0.0113568362     2     4     9     1
 -0.0112948257     2     4     9     3
 -0.0012568534     2     4     9     5
 -0.0219305179     2     4     9     7
 0.0029898900     2     4     9     9
 -0.0010842285     2     5     1     2
 -0.0147443678     2     5     1     4
 -0.0110886872     2     5     1     6
 0.0024626575     2     5     1     8
 -0.0077982556     2     5     3     2
 -0.0265342480     2     5     3     4
 -0.0176837699     2     5     3     6
 0.0026986846     2     5     3     8
 0.0359908382     2     5     4     1
 -0.0565108485     2     5     4     3
 0.0079852583     2     5     4     7
 0.0119379308     2     5     4     9
 -0.1822915648     2     5     5     2
 -0.0042118747     2     5     5     4
 0.0069915844     2     5     5     6
 0.0172561157     2     5     5     8
 -0.0559885984     2     5     6     1
 0.0327065234     2     5     6     3
 -0.0110038585     2     5     6     7
 -0.0091627357     2     5     6     9
 -0.0082123854     2     5     7     2
 -0.0036649769     2     5     7     4
 -0.0026049192     2     5     7     6
 0.0032335103     2     5     7     8
 0.0170396107     2     5     8     1
 -0.0085555211     2     5     8     3
 0.0054496856     2     5     8     7
 -0.0100011166     2     5     8     9
 -0.0174120187     2     5     9     2
 0.0012568534     2     5     9     4
 0.0007519587     2     5     9     6
 -0.0090445762     2     5     9     8
 -0.0087631387     2     6     1     1
 0.0058115732     2     6     1     3
 0.0110886872     2     6     1     5
 0.0006753210     2     6     1     7
 0.0034820217     2     6     1     9
 -0.0156152624     2     6     3     1
 0.0043052261     2     6     3     3
 0.0176837699     2     6     3     5
 0.0007698477     2     6     3     7
 0.0065687007     2     6     3     9
 -0.0075050358     2     6     4     2
 -0.0367155440     2     6     4     4
 -0.0067870944     2     6     4     8
 -0.0448999112     2     6     5     1
 0.0503902933     2     6     5     3
 -0.0069915844     2     6     5     5
 -0.0083989393     2     6     5     7
 -0.0099146944     2     6     5     9
 -0.1858406197     2     6     6     2
 -0.0204783365     2     6     6     4
 0.0119645163     2     6     6     8
 0.0063850395     2     6     7     1
 -0.0061288755     2     6     7     3
 0.0026049192     2     6     7     5
 -0.0042625333     2     6     7     7
 0.0009139397     2     6     7     9
 0.0167658696     2     6     8     2
 0.0092877582     2     6     8     4
 -0.0072206344     2     6     8     8
 0.0083107828     2     6     9     1
 -0.0072625615     2     6     9     3
 -0.0007519587     2     6     9     5
 -0.0002190306     2     6     9     7
 -0.0017000931     2     6     9     9
 -0.0039825507     2     7     1     2
 -0.0020695397     2     7     1     4
 -0.0006753210     2     7     1     6
 0.0007870562     2     7     1     8
 -0.0025976594     2     7     3     2
 -0.0004983024     2     7     3     4
 -0.0007698477     2     7     3     6
 0.0008774241     2     7     3     8
 0.0050325450     2     7     4     1
 0.0001669390     2     7     4     3
 -0.0079852583     2     7     4     5
 -0.0024743658     2     7     4     9
 -0.0082123854     2     7     5     2
 -0.0116502352     2     7     5     4
 0.0083989393     2     7     5     6
 -0.0022161753     2     7     5     8
 0.0057097185     2     7     6     1
 -0.0068987232     2     7     6     3
 0.0110038585     2     7     6     5
 0.0011329703     2     7     6     9
 -0.1703794031     2     7     7     2
 -0.0179899589     2     7     7     4
 0.0042625333     2     7     7     6
 0.0001472931     2     7     7     8
 0.0508791101     2     7     8     1
 -0.0476197768     2     7     8     3
 -0.0054496856     2     7     8     5
 -0.0018077054     2     7     8     9
 0.0035287583     2     7     9     2
 0.0219305179     2     7     9     4
 0.0002190306     2     7     9     6
 -0.0016140283     2     7     9     8
 -0.0012644000     2     8     1     1
 -0.0033145623     2     8     1     3
 -0.0024626575     2     8     1     5
 -0.0007870562     2     8     1     7
 -0.0001916311     2     8     1     9
 -0.0002994381     2     8     3     1
 -0.0032057957     2     8     3     3
 -0.0026986846     2     8     3     5
 -0.0008774241     2     8     3     7
 -0.0004945987     2     8     3     9
 -0.0068107805     2     8     4     2
 -0.0018656910     2     8     4     4
 0.0067870944     2     8     4     6
 0.0145769532     2     8     5     1
 -0.0112542057     2     8     5     3
 -0.0172561157     2     8     5     5
 0.0022161753     2     8     5     7
 -0.0009565404     2     8     5     9
 0.0167658696     2     8     6     2
 0.0160748526     2     8     6     4
 -0.0119645163     2     8     6     6
 0.0500920539     2     8     7     1
 -0.0484972009     2     8     7     3
 -0.0032335103     2     8     7     5
 -0.0001472931     2     8     7     7
 -0.0001936771     2     8     7     9
 -0.1722246366     2     8     8     2
 0.0006308241     2     8     8     4
 0.0072206344     2     8     8     6
 0.0313645678     2     8     9     1
 -0.0384071754     2     8     9     3
 0.0090445762     2     8     9     5
 0.0016140283     2     8     9     7
 -0.0016848171     2     8     9     9
 0.0053461261     2     9     1     2
 0.0004253298     2     9     1     4
 -0.0034820217     2     9     1     6
 0.0001916311     2     9     1     8
 0.0071466518     2     9     3     2
 -0.0003411364     2     9     3     4
 -0.0065687007     2     9     3     6
 0.0004945987     2     9     3     8
 0.0117821660     2     9     4     1
 -0.0116359621     2     9     4     3
 -0.0119379308     2     9     4     5
 0.0024743658     2     9     4     7
 -0.0174120187     2     9     5     2
 -0.0106810774     2     9     5     4
 0.0099146944     2     9     5     6
 0.0009565404     2     9     5     8
 0.0048287611     2     9     6     1
 -0.0138312622     2     9     6     3
 0.0091627357     2     9     6     5
 -0.0011329703     2     9     6     7
 0.0035287583     2     9     7     2
 0.0244048837     2     9     7     4
 -0.0009139397     2     9     7     6
 0.0001936771     2     9     7     8
 0.0315561989     2     9     8     1
 -0.0379125767     2     9     8     3
 0.0100011166     2     9     8     5
 0.0018077054     2     9     8     7
 -0.1655526379     2     9     9     2
 -0.0029898900     2     9     9     4
 0.0017000931     2     9     9     6
 0.0016848171     2     9     9     8
 -0.1745895748     3     1     1     3
 -0.0324541107     3     1     1     5
 -0.0004291371     3     1     1     7
 0.0016962845     3     1     1     9
 0.0492171717     3     1     2     2
 -0.0122082576     3     1     2     4
 -0.0156152624     3     1     2     6
 -0.0002994381     3     1     2     8
 0.0322337318     3     1     4     2
 0.0104213535     3     1     4     4
 0.0153853256     3     1     4     6
 -0.0080294711     3     1     4     8
 0.0320712505     3     1     5     3
 0.0010230669     3     1     5     5
 0.0014602828     3     1     5     7
 -0.0003329321     3     1     5     9
 0.0058115732     3     1     6     2
 0.0365250981     3     1     6     4
 0.0218326417     3     1     6     6
 -0.0119941071     3     1     6     8
 -0.0047181145     3     1     7     3
 -0.0000725383     3     1     7     5
 0.0162403796     3     1     7     7
 -0.0288705333     3     1     7     9
 -0.0033145623     3     1     8     2
 -0.0100468457     3     1     8     4
 -0.0124050053     3     1     8     6
 -0.0071247253     3     1     8     8
 0.0108423377     3     1     9     3
 0.0065708305     3     1     9     5
 -0.0292558156     3     1     9     7
 0.0038999477     3     1     9     9
 -0.0444419894     3     2     1     4
 -0.0214268356     3     2     1     6
 0.0030151242     3     2     1     8
 -0.0492171717     3     2     2     1
 -0.1421728418     3     2     2     3
 -0.0077982556     3     2     2     5
 -0.0025976594     3     2     2     7
 0.0071466518     3     2     2     9
 -0.0322337318     3     2     4     1
 -0.0570910785     3     2     4     3
 0.0299766005     3     2     4     5
 -0.0006652414     3     2     4     7
 0.0112948257     3     2     4     9
 0.0565108485     3     2     5     4
 -0.0327065234     3     2     5     6
 0.0085555211     3     2     5     8
 -0.0058115732     3     2     6     1
 -0.0043052261     3     2     6     3
 -0.0503902933     3     2     6     5
 0.0061288755     3     2     6     7
 0.0072625615     3     2     6     9
 -0.0001669390     3     2     7     4
 0.0068987232     3     2     7     6
 0.0476197768     3     2     7     8
 0.0033145623     3     2     8     1
 0.0032057957     3     2     8     3
 0.0112542057     3     2     8     5
 0.0484972009     3     2     8     7
 0.0384071754     3     2     8     9
 0.0116359621     3     2     9     4
 0.0138312622     3     2     9     6
 0.0379125767     3     2     9     8
 0.1745895748     3     3     1     1
 -0.0320712505     3     3     1     5
 0.0047181145     3     3     1     7
 -0.0108423377     3     3     1     9
 0.1421728418     3     3     2     2
 0.0570910785     3     3     2     4
 0.0043052261     3     3     2     6
 -0.0032057957     3     3     2     8
 0.0570910785     3     3     4     2
 0.1777599785     3     3     4     4
 0.0160859797     3     3     4     6
 -0.0027625951     3     3     4     8
 -0.0320712505     3     3     5     1
 0.1717891258     3     3     5     5
 0.0029156448     3     3     5     7
 0.0173291811     3     3     5     9
 0.0043052261     3     3     6     2
 0.0160859797     3     3     6     4
 0.1856815383     3     3     6     6
 -0.0191260018     3     3     6     8
 0.0047181145     3     3     7     1
 0.0029156448     3     3     7     5
 0.1755329889     3     3     7     7
 -0.0174698982     3     3     7     9
 -0.0032057957     3     3     8     2
 -0.0027625951     3     3     8     4
 -0.0191260018     3     3     8     6
 0.1661285557     3     3     8     8
 -0.0108423377     3     3     9     1
 0.0173291811     3     3     9     5
 -0.0174698982     3     3     9     7
 0.1678837477     3     3     9     9
 0.0444419894     3     4     1     2
 -0.0211397725     3     4     1     6
 0.0020173746     3     4     1     8
 0.0122082576     3     4     2     1
 -0.0570910785     3     4     2     3
 -0.0265342480     3     4     2     5
 -0.0004983024     3     4     2     7
 -0.0003411364     3     4     2     9
 -0.0104213535     3     4     4     1
 -0.1777599785     3     4     4     3
 -0.0608318588     3     4     4     5
 -0.0024937791     3     4     4     7
 0.0009909356     3     4     4     9
 -0.0565108485     3     4     5     2
 0.0501936153     3     4     5     6
 -0.0018332719     3     4     5     8
 -0.0365250981     3     4     6     1
 -0.0160859797     3     4     6     3
 0.0085307188     3     4     6     5
 -0.0150098908     3     4     6     7
 -0.0129550414     3     4     6     9
 0.0001669390     3     4     7     2
 -0.0065275486     3     4     7     6
 -0.0342672117     3     4     7     8
 0.0100468457     3     4     8     1
 0.0027625951     3     4     8     3
 0.0000873776     3     4     8     5
 -0.0311971757     3     4     8     7
 -0.0258248630     3     4     8     9
 -0.0116359621     3     4     9     2
 0.0002217642     3     4     9     6
 -0.0269725525     3     4     9     8
 0.0324541107     3     5     1     1
 0.0320712505     3     5     1     3
 0.0015328211     3     5     1     7
 -0.0069037626     3     5     1     9
 0.0077982556     3     5     2     2
 0.0265342480     3     5     2     4
 0.0176837699     3     5     2     6
 -0.0026986846     3     5     2     8
 -0.0299766005     3     5     4     2
 0.0608318588     3     5     4     4
 0.0416628965     3     5     4     6
 -0.0019206495     3     5     4     8
 -0.0010230669     3     5     5     1
 -0.1717891258     3     5     5     3
 0.0084672219     3     5     5     7
 0.0193378716     3     5     5     9
 0.0503902933     3     5     6     2
 -0.0085307188     3     5     6     4
 0.0114818167     3     5     6     6
 -0.0196521293     3     5     6     8
 0.0000725383     3     5     7     1
 -0.0029156448     3     5     7     3
 0.0179121220     3     5     7     7
 -0.0242006318     3     5     7     9
 -0.0112542057     3     5     8     2
 -0.0000873776     3     5     8     4
 -0.0075139170     3     5     8     6
 0.0012316634     3     5     8     8
 -0.0065708305     3     5     9     1
 -0.0173291811     3     5     9     3
 -0.0231182964     3     5     9     7
 0.0066896253     3     5     9     9
 0.0214268356     3     6     1     2
 0.0211397725     3     6     1     4
 0.0004108982     3     6     1     8
 0.0156152624     3     6     2     1
 -0.0043052261     3     6     2     3
 -0.0176837699     3     6     2     5
 -0.0007698477     3     6     2     7
 -0.0065687007     3     6     2     9
 -0.0153853256     3     6     4     1
 -0.0160859797     3     6     4     3
 -0.0416628965     3     6     4     5
 -0.0084823422     3     6     4     7
 -0.0131768056     3     6     4     9
 0.0327065234     3     6     5     2
 -0.0501936153     3     6     5     4
 -0.0121382123     3     6     5     8
 -0.0218326417     3     6     6     1
 -0.1856815383     3     6     6     3
 -0.0114818167     3     6     6     5
 -0.0002838467     3     6     6     7
 0.0119166817     3     6     6     9
 -0.0068987232     3     6     7     2
 0.0065275486     3     6     7     4
 -0.0103971377     3     6     7     8
 0.0124050053     3     6     8     1
 0.0191260018     3     6     8     3
 0.0075139170     3     6     8     5
 -0.0094905938     3     6     8     7
 0.0030094768     3     6     8     9
 -0.0138312622     3     6     9     2
 -0.0002217642     3     6     9     4
 0.0044882374     3     6     9     8
 0.0004291371     3     7     1     1