&FCI NORB= 16,NELEC= 10,MS2=0,
 ORBSYM=1,1,1,1,1,1,1,1,1,1,1,1,1,1,1,1
 ISYM=1,
&END
 1.0028397409     1     1     2     2
 -0.0543714411     1     1     2     3
 0.0569188772     1     1     2     5
 -0.0841380992     1     1     2     6
 0.0976385868     1     1     2     7
 0.0164580970     1     1     2     8
 0.0644367790     1     1     2     9
 0.0397579908     1     1     2    10
 0.0583092963     1     1     2    12
 -0.0921123377     1     1     2    14
 -0.1239640715     1     1     2    16
 -0.0543714411     1     1     3     2
 0.9029516060     1     1     3     3
 -0.0738323767     1     1     3     5
 0.0677835113     1     1     3     6
 0.1213620486     1     1     3     7
 -0.0132330371     1     1     3     8
 -0.0103119480     1     1     3     9
 0.2349710686     1     1     3    10
 -0.0480535925     1     1     3    12
 -0.0622760221     1     1     3    14
 0.0239346195     1     1     3    16
 1.0165956313     1     1     4     4
 0.2026024527     1     1     4    11
 0.2185527089     1     1     4    13
 0.0660811772     1     1     4    15
 0.0569188772     1     1     5     2
 -0.0738323767     1     1     5     3
 0.7442146620     1     1     5     5
 0.2789317994     1     1     5     6
 0.0478570103     1     1     5     7
 -0.0635787847     1     1     5     8
 0.0423532080     1     1     5     9
 -0.1046665631     1     1     5    10
 -0.0632292490     1     1     5    12
 -0.1916472740     1     1     5    14
 0.0831931559     1     1     5    16
 -0.0841380992     1     1     6     2
 0.0677835113     1     1     6     3
 0.2789317994     1     1     6     5
 0.5012510457     1     1     6     6
 0.0292586958     1     1     6     7
 -0.1132715510     1     1     6     8
 0.0067154551     1     1     6     9
 -0.0335166277     1     1     6    10
 -0.0933183083     1     1     6    12
 -0.1421976278     1     1     6    14
 0.1612759083     1     1     6    16
 0.0976385868     1     1     7     2
 0.1213620486     1     1     7     3
 0.0478570103     1     1     7     5
 0.0292586958     1     1     7     6
 0.3116061276     1     1     7     7
 -0.0279664963     1     1     7     8
 0.0445557495     1     1     7     9
 0.1068228612     1     1     7    10
 -0.0001392524     1     1     7    12
 -0.1076130195     1     1     7    14
 -0.0233335613     1     1     7    16
 0.0164580970     1     1     8     2
 -0.0132330371     1     1     8     3
 -0.0635787847     1     1     8     5
 -0.1132715510     1     1     8     6
 -0.0279664963     1     1     8     7
 0.2542043363     1     1     8     8
 -0.0096444014     1     1     8     9
 0.0121347474     1     1     8    10
 0.0103433078     1     1     8    12
 0.0306239089     1     1     8    14
 -0.0606296493     1     1     8    16
 0.0644367790     1     1     9     2
 -0.0103119480     1     1     9     3
 0.0423532080     1     1     9     5
 0.0067154551     1     1     9     6
 0.0445557495     1     1     9     7
 -0.0096444014     1     1     9     8
 0.3466190074     1     1     9     9
 0.0235129119     1     1     9    10
 0.0163336078     1     1     9    12
 -0.0525460443     1     1     9    14
 -0.0017332096     1     1     9    16
 0.0397579908     1     1    10     2
 0.2349710686     1     1    10     3
 -0.1046665631     1     1    10     5
 -0.0335166277     1     1    10     6
 0.1068228612     1     1    10     7
 0.0121347474     1     1    10     8
 0.0235129119     1     1    10     9
 0.4990601398     1     1    10    10
 0.0109570287     1     1    10    12
 0.0023285258     1     1    10    14
 -0.0314551811     1     1    10    16
 0.2026024527     1     1    11     4
 0.3849755264     1     1    11    11
 0.1140404539     1     1    11    13
 0.0492687479     1     1    11    15
 0.0583092963     1     1    12     2
 -0.0480535925     1     1    12     3
 -0.0632292490     1     1    12     5
 -0.0933183083     1     1    12     6
 -0.0001392524     1     1    12     7
 0.0103433078     1     1    12     8
 0.0163336078     1     1    12     9
 0.0109570287     1     1    12    10
 0.3514012600     1     1    12    12
 0.0532902272     1     1    12    14
 -0.0509733013     1     1    12    16
 0.2185527089     1     1    13     4
 0.1140404539     1     1    13    11
 0.4435709165     1     1    13    13
 0.0106010229     1     1    13    15
 -0.0921123377     1     1    14     2
 -0.0622760221     1     1    14     3
 -0.1916472740     1     1    14     5
 -0.1421976278     1     1    14     6
 -0.1076130195     1     1    14     7
 0.0306239089     1     1    14     8
 -0.0525460443     1     1    14     9
 0.0023285258     1     1    14    10
 0.0532902272     1     1    14    12
 0.4967187667     1     1    14    14
 -0.0517567061     1     1    14    16
 0.0660811772     1     1    15     4
 0.0492687479     1     1    15    11
 0.0106010229     1     1    15    13
 0.3496976628     1     1    15    15
 -0.1239640715     1     1    16     2
 0.0239346195     1     1    16     3
 0.0831931559     1     1    16     5
 0.1612759083     1     1    16     6
 -0.0233335613     1     1    16     7
 -0.0606296493     1     1    16     8
 -0.0017332096     1     1    16     9
 -0.0314551811     1     1    16    10
 -0.0509733013     1     1    16    12
 -0.0517567061     1     1    16    14
 0.3961822041     1     1    16    16
 -1.0028397409     1     2     2     1
 -0.0062151545     1     2     2     3
 0.0007836138     1     2     2     5
 -0.0006319546     1     2     2     6
 -0.0020237996     1     2     2     7
 0.0001961809     1     2     2     8
 -0.0002015331     1     2     2     9
 -0.0048086104     1     2     2    10
 0.0006071553     1     2     2    12
 0.0015642655     1     2     2    14
 -0.0000591366     1     2     2    16
 0.0543714411     1     2     3     1
 -0.0339224813     1     2     3     3
 0.0043068983     1     2     3     5
 -0.0031855281     1     2     3     6
 -0.0097143127     1     2     3     7
 0.0010822902     1     2     3     8
 -0.0016018003     1     2     3     9
 -0.0209024179     1     2     3    10
 0.0025891878     1     2     3    12
 0.0070236492     1     2     3    14
 -0.0007422901     1     2     3    16
 -0.0435973659     1     2     4     4
 -0.0164107164     1     2     4    11
 -0.0191316114     1     2     4    13
 -0.0052264688     1     2     4    15
 -0.0569188772     1     2     5     1
 0.0037144517     1     2     5     3
 -0.0257463235     1     2     5     5
 -0.0171399136     1     2     5     6
 -0.0021819518     1     2     5     7
 0.0054077401     1     2     5     8
 -0.0026005366     1     2     5     9
 0.0081587956     1     2     5    10
 0.0064214892     1     2     5    12
 0.0150625401     1     2     5    14
 -0.0096738177     1     2     5    16
 0.0841380992     1     2     6     1
 -0.0021882973     1     2     6     3
 -0.0150258901     1     2     6     5
 -0.0133463307     1     2     6     6
 -0.0031421653     1     2     6     7
 0.0042558816     1     2     6     8
 -0.0019621348     1     2     6     9
 0.0026371214     1     2     6    10
 0.0051446715     1     2     6    12
 0.0120848811     1     2     6    14
 -0.0074275037     1     2     6    16
 -0.0976385868     1     2     7     1
 -0.0084041913     1     2     7     3
 -0.0016319392     1     2     7     5
 -0.0032580573     1     2     7     6
 -0.0030565689     1     2     7     7
 0.0010667855     1     2     7     8
 -0.0008079193     1     2     7     9
 -0.0051811109     1     2     7    10
 0.0015107408     1     2     7    12
 0.0041957790     1     2     7    14
 -0.0013936887     1     2     7    16
 -0.0164580970     1     2     8     1
 0.0007100291     1     2     8     3
 0.0045140215     1     2     8     5
 0.0040659645     1     2     8     6
 0.0009828923     1     2     8     7
 -0.0014319949     1     2     8     8
 0.0007114747     1     2     8     9
 -0.0008523063     1     2     8    10
 -0.0015659710     1     2     8    12
 -0.0037372314     1     2     8    14
 0.0023157954     1     2     8    16
 -0.0644367790     1     2     9     1
 -0.0013413593     1     2     9     3
 -0.0019328898     1     2     9     5
 -0.0017030821     1     2     9     6
 -0.0007646991     1     2     9     7
 0.0006568789     1     2     9     8
 -0.0004925190     1     2     9     9
 0.0001639882     1     2     9    10
 0.0005514017     1     2     9    12
 0.0016939272     1     2     9    14
 -0.0007628804     1     2     9    16
 -0.0397579908     1     2    10     1
 -0.0157399408     1     2    10     3
 0.0065832731     1     2    10     5
 0.0018890326     1     2    10     6
 -0.0043463055     1     2    10     7
 -0.0006522836     1     2    10     8
 0.0003166883     1     2    10     9
 -0.0126311414     1     2    10    10
 0.0003868128     1     2    10    12
 0.0001627132     1     2    10    14
 0.0014813069     1     2    10    16
 -0.0126019690     1     2    11     4
 -0.0060937750     1     2    11    11
 -0.0067157503     1     2    11    13
 -0.0019816304     1     2    11    15
 -0.0583092963     1     2    12     1
 0.0016570656     1     2    12     3
 0.0046912857     1     2    12     5
 0.0043828494     1     2    12     6
 0.0011949833     1     2    12     7
 -0.0013903172     1     2    12     8
 0.0005147560     1     2    12     9
 0.0002095652     1     2    12    10
 -0.0018033345     1     2    12    12
 -0.0037964836     1     2    12    14
 0.0024010397     1     2    12    16
 -0.0140426214     1     2    13     4
 -0.0064027946     1     2    13    11
 -0.0071809951     1     2    13    13
 -0.0024709201     1     2    13    15
 0.0921123377     1     2    14     1
 0.0056503853     1     2    14     3
 0.0110312402     1     2    14     5
 0.0105729016     1     2    14     6
 0.0038236328     1     2    14     7
 -0.0034181007     1     2    14     8
 0.0016652664     1     2    14     9
 0.0006554200     1     2    14    10
 -0.0040172322     1     2    14    12
 -0.0103735168     1     2    14    14
 0.0056776362     1     2    14    16
 -0.0042397903     1     2    15     4
 -0.0020980947     1     2    15    11
 -0.0027099841     1     2    15    13
 -0.0005961273     1     2    15    15
 0.1239640715     1     2    16     1
 0.0003881583     1     2    16     3
 -0.0074214734     1     2    16     5
 -0.0063949523     1     2    16     6
 -0.0009185261     1     2    16     7
 0.0020856018     1     2    16     8
 -0.0007511710     1     2    16     9
 0.0022919092     1     2    16    10
 0.0023890232     1     2    16    12
 0.0054995942     1     2    16    14
 -0.0039622606     1     2    16    16
 0.0543714411     1     3     2     1
 0.0062151545     1     3     2     2
 0.0005890994     1     3     2     5
 -0.0008910167     1     3     2     6
 -0.0007399791     1     3     2     7
 0.0003340866     1     3     2     8
 -0.0001770382     1     3     2     9
 -0.0040820646     1     3     2    10
 0.0008022619     1     3     2    12
 0.0009859372     1     3     2    14
 -0.0011560483     1     3     2    16
 -0.9029516060     1     3     3     1
 0.0339224813     1     3     3     2
 0.0027654099     1     3     3     5
 -0.0036574742     1     3     3     6
 0.0048582795     1     3     3     7
 0.0009888659     1     3     3     8
 0.0004735195     1     3     3     9
 0.0016317247     1     3     3    10
 0.0018080845     1     3     3    12
 -0.0055498698     1     3     3    14
 -0.0075795867     1     3     3    16
 0.0118519718     1     3     4     4
 0.0049513732     1     3     4    11
 0.0031111824     1     3     4    13
 0.0042180093     1     3     4    15
 0.0738323767     1     3     5     1
 -0.0037144517     1     3     5     2
 0.0063606508     1     3     5     5
 0.0062927914     1     3     5     6
 0.0005050137     1     3     5     7
 -0.0026177212     1     3     5     8
 -0.0004475893     1     3     5     9
 -0.0017148636     1     3     5    10
 -0.0002119759     1     3     5    12
 -0.0035599341     1     3     5    14
 0.0048652824     1     3     5    16
 -0.0677835113     1     3     6     1
 0.0021882973     1     3     6     2
 0.0045579475     1     3     6     5
 0.0026211735     1     3     6     6
 0.0004474646     1     3     6     7
 -0.0011619530     1     3     6     8
 0.0005857982     1     3     6     9
 -0.0014842128     1     3     6    10
 0.0000605948     1     3     6    12
 -0.0025678120     1     3     6    14
 0.0017900411     1     3     6    16
 -0.1213620486     1     3     7     1
 0.0084041913     1     3     7     2
 0.0016039116     1     3     7     5
 -0.0010776948     1     3     7     6
 0.0040144742     1     3     7     7
 0.0001945441     1     3     7     8
 0.0009594795     1     3     7     9
 0.0027126024     1     3     7    10
 0.0002499057     1     3     7    12
 -0.0028219320     1     3     7    14
 -0.0021538974     1     3     7    16
 0.0132330371     1     3     8     1
 -0.0007100291     1     3     8     2
 -0.0014238950     1     3     8     5
 -0.0006463009     1     3     8     6
 -0.0001669128     1     3     8     7
 -0.0004190549     1     3     8     8
 0.0004088425     1     3     8     9
 -0.0001805558     1     3     8    10
 -0.0001496541     1     3     8    12
 0.0004757286     1     3     8    14
 -0.0001369643     1     3     8    16
 0.0103119480     1     3     9     1
 0.0013413593     1     3     9     2
 0.0002270039     1     3     9     5
 0.0008452167     1     3     9     6
 0.0011948832     1     3     9     7
 0.0002516684     1     3     9     8
 0.0002496036     1     3     9     9
 0.0039709188     1     3     9    10
 -0.0007429547     1     3     9    12
 -0.0027540012     1     3     9    14
 0.0004759076     1     3     9    16
 -0.2349710686     1     3    10     1
 0.0157399408     1     3    10     2
 0.0003491311     1     3    10     5
 -0.0041396059     1     3    10     6
 0.0052304944     1     3    10     7
 0.0007329542     1     3    10     8
 0.0042302142     1     3    10     9
 0.0049476522     1     3    10    10
 0.0034287603     1     3    10    12
 -0.0040895944     1     3    10    14
 -0.0060914796     1     3    10    16
 0.0033611201     1     3    11     4
 0.0005514778     1     3    11    11
 0.0017049135     1     3    11    13
 0.0007023992     1     3    11    15
 0.0480535925     1     3    12     1
 -0.0016570656     1     3    12     2
 -0.0013038617     1     3    12     5
 -0.0010145820     1     3    12     6
 -0.0008563400     1     3    12     7
 0.0003896607     1     3    12     8
 -0.0008660554     1     3    12     9
 0.0025284203     1     3    12    10
 0.0002770717     1     3    12    12
 0.0026322899     1     3    12    14
 -0.0008682292     1     3    12    16
 0.0041515643     1     3    13     4
 0.0028554641     1     3    13    11
 0.0043682193     1     3    13    13
 -0.0010034527     1     3    13    15
 0.0622760221     1     3    14     1
 -0.0056503853     1     3    14     2
 -0.0039205555     1     3    14     5
 -0.0015557806     1     3    14     6
 -0.0023254601     1     3    14     7
 0.0006079450     1     3    14     8
 -0.0021812575     1     3    14     9
 -0.0010878241     1     3    14    10
 0.0008638789     1     3    14    12
 0.0048796211     1     3    14    14
 0.0006452155     1     3    14    16
 0.0009292407     1     3    15     4
 -0.0004090896     1     3    15    11
 -0.0026532894     1     3    15    13
 0.0011211588     1     3    15    15
 -0.0239346195     1     3    16     1
 -0.0003881583     1     3    16     2
 0.0020389564     1     3    16     5
 0.0016015396     1     3    16     6
 0.0000023007     1     3    16     7
 -0.0003659312     1     3    16     8
 0.0004725511     1     3    16     9
 -0.0009218100     1     3    16    10
 -0.0004551532     1     3    16    12
 -0.0002100901     1     3    16    14
 0.0005367440     1     3    16    16
 -0.0029268619     1     4     2    11
 -0.0041177691     1     4     2    13
 -0.0006972340     1     4     2    15
 0.0014121775     1     4     3    11
 -0.0013042477     1     4     3    13
 0.0032654315     1     4     3    15
 -1.0165956313     1     4     4     1
 0.0435973659     1     4     4     2
 -0.0118519718     1     4     4     3
 0.0051311619     1     4     4     5
 -0.0067147729     1     4     4     6
 0.0051294253     1     4     4     7
 0.0020859702     1     4     4     8
 0.0068483429     1     4     4     9
 0.0003739225     1     4     4    10
 0.0065058316     1     4     4    12
 -0.0073889472     1     4     4    14
 -0.0095635982     1     4     4    16
 0.0013388486     1     4     5    11
 -0.0010085079     1     4     5    13
 -0.0014143077     1     4     5    15
 -0.0002870605     1     4     6    11
 -0.0007502037     1     4     6    13
 -0.0002554616     1     4     6    15
 0.0010165395     1     4     7    11
 0.0013065023     1     4     7    13
 0.0005234139     1     4     7    15
 -0.0006901399     1     4     8    11
 -0.0003051595     1     4     8    13
 -0.0004637106     1     4     8    15
 -0.0003934150     1     4     9    11
 -0.0007504957     1     4     9    13
 -0.0003024649     1     4     9    15
 -0.0005093830     1     4    10    11
 -0.0007014400     1     4    10    13
 -0.0004644285     1     4    10    15
 -0.2026024527     1     4    11     1
 0.0126019690     1     4    11     2
 -0.0033611201     1     4    11     3
 0.0022705081     1     4    11     5
 -0.0035971839     1     4    11     6
 0.0027217769     1     4    11     7
 0.0003519788     1     4    11     8
 0.0021340332     1     4    11     9
 -0.0003742087     1     4    11    10
 0.0025093925     1     4    11    12
 -0.0022255952     1     4    11    14
 -0.0058207805     1     4    11    16
 -0.0002885430     1     4    12    11
 -0.0003845602     1     4    12    13
 0.0002137595     1     4    12    15
 -0.2185527089     1     4    13     1
 0.0140426214     1     4    13     2
 -0.0041515643     1     4    13     3
 0.0016998180     1     4    13     5
 -0.0029743895     1     4    13     6
 0.0043277096     1     4    13     7
 0.0003816404     1     4    13     8
 0.0024552483     1     4    13     9
 0.0006471857     1     4    13    10
 0.0021351208     1     4    13    12
 -0.0044609443     1     4    13    14
 -0.0052742556     1     4    13    16
 -0.0001077493     1     4    14    11
 -0.0002180573     1     4    14    13
 -0.0002330185     1     4    14    15
 -0.0660811772     1     4    15     1
 0.0042397903     1     4    15     2
 -0.0009292407     1     4    15     3
 0.0004274506     1     4    15     5
 -0.0007129220     1     4    15     6
 0.0004590253     1     4    15     7
 -0.0003176493     1     4    15     8
 0.0005767095     1     4    15     9
 -0.0023480463     1     4    15    10
 0.0010395874     1     4    15    12
 -0.0011391747     1     4    15    14
 -0.0014400000     1     4    15    16
 -0.0017778501     1     4    16    11
 -0.0013712695     1     4    16    13
 -0.0005723772     1     4    16    15
 -0.0569188772     1     5     2     1
 -0.0007836138     1     5     2     2
 -0.0005890994     1     5     2     3
 -0.0011154216     1     5     2     6
 -0.0004528446     1     5     2     7
 0.0005821186     1     5     2     8
 -0.0005415819     1     5     2     9
 0.0011096853     1     5     2    10
 0.0014138730     1     5     2    12
 0.0032839267     1     5     2    14
 -0.0017558289     1     5     2    16
 0.0738323767     1     5     3     1
 -0.0043068983     1     5     3     2
 -0.0027654099     1     5     3     3
 0.0014678720     1     5     3     6
 -0.0011905873     1     5     3     7
 -0.0011010438     1     5     3     8
 -0.0006597728     1     5     3     9
 -0.0020897139     1     5     3    10
 0.0011567942     1     5     3    12
 0.0006029526     1     5     3    14
 0.0026992546     1     5     3    16
 -0.0051311619     1     5     4     4
 -0.0010975831     1     5     4    11
 -0.0028061850     1     5     4    13
 -0.0018592761     1     5     4    15
 -0.7442146620     1     5     5     1
 0.0257463235     1     5     5     2
 -0.0063606508     1     5     5     3
 -0.0032086557     1     5     5     6
 0.0033104114     1     5     5     7
 -0.0001088880     1     5     5     8
 0.0042132882     1     5     5     9
 0.0015051683     1     5     5    10
 0.0023901515     1     5     5    12
 -0.0021108681     1     5     5    14
 -0.0050008309     1     5     5    16
 -0.2789317994     1     5     6     1
 0.0150258901     1     5     6     2
 -0.0045579475     1     5     6     3
 -0.0060878169     1     5     6     6
 0.0013321349     1     5     6     7
 0.0014820450     1     5     6     8
 0.0023758167     1     5     6     9
 0.0009371659     1     5     6    10
 0.0031287031     1     5     6    12
 0.0005869991     1     5     6    14
 -0.0047497795     1     5     6    16
 -0.0478570103     1     5     7     1
 0.0016319392     1     5     7     2
 -0.0016039116     1     5     7     3
 -0.0007818503     1     5     7     6
 -0.0002390795     1     5     7     7
 0.0002864985     1     5     7     8
 0.0004245493     1     5     7     9
 -0.0012515244     1     5     7    10
 0.0003050581     1     5     7    12
 -0.0004717064     1     5     7    14
 -0.0000237533     1     5     7    16
 0.0635787847     1     5     8     1
 -0.0045140215     1     5     8     2
 0.0014238950     1     5     8     3
 0.0024068849     1     5     8     6
 -0.0000477219     1     5     8     7
 -0.0021834182     1     5     8     8
 -0.0009407901     1     5     8     9
 0.0002144203     1     5     8    10
 -0.0014841145     1     5     8    12
 -0.0004871184     1     5     8    14
 0.0020415548     1     5     8    16
 -0.0423532080     1     5     9     1
 0.0019328898     1     5     9     2
 -0.0002270039     1     5     9     3
 -0.0006888718     1     5     9     6
 0.0005518402     1     5     9     7
 -0.0001073182     1     5     9     8
 -0.0008231555     1     5     9     9
 0.0007020174     1     5     9    10
 0.0017072353     1     5     9    12
 0.0000774706     1     5     9    14
 -0.0008725197     1     5     9    16
 0.1046665631     1     5    10     1
 -0.0065832731     1     5    10     2
 -0.0003491311     1     5    10     3
 0.0017142548     1     5    10     6
 -0.0023591866     1     5    10     7
 -0.0001272192     1     5    10     8
 -0.0011175520     1     5    10     9
 -0.0013855815     1     5    10    10
 -0.0012157476     1     5    10    12
 0.0027584814     1     5    10    14
 0.0021160331     1     5    10    16
 -0.0022705081     1     5    11     4
 -0.0030791240     1     5    11    11
 -0.0006029413     1     5    11    13
 0.0002111667     1     5    11    15
 0.0632292490     1     5    12     1
 -0.0046912857     1     5    12     2
 0.0013038617     1     5    12     3
 0.0019008654     1     5    12     6
 -0.0013185655     1     5    12     7
 -0.0007191828     1     5    12     8
 0.0003779764     1     5    12     9
 -0.0019254846     1     5    12    10
 -0.0015201505     1     5    12    12
 0.0005093630     1     5    12    14
 0.0026324996     1     5    12    16
 -0.0016998180     1     5    13     4
 0.0003833914     1     5    13    11
 -0.0011262044     1     5    13    13
 -0.0002175234     1     5    13    15
 0.1916472740     1     5    14     1
 -0.0110312402     1     5    14     2
 0.0039205555     1     5    14     3
 0.0035071336     1     5    14     6
 -0.0023642015     1     5    14     7
 -0.0005184667     1     5    14     8
 -0.0021081160     1     5    14     9
 0.0010702520     1     5    14    10
 -0.0019713168     1     5    14    12
 0.0030276366     1     5    14    14
 0.0041322642     1     5    14    16
 -0.0004274506     1     5    15     4
 0.0009447003     1     5    15    11
 0.0002872790     1     5    15    13
 -0.0000044958     1     5    15    15
 -0.0831931559     1     5    16     1
 0.0074214734     1     5    16     2
 -0.0020389564     1     5    16     3
 -0.0029230121     1     5    16     6
 0.0011720672     1     5    16     7
 0.0009751834     1     5    16     8
 0.0011760188     1     5    16     9
 0.0001342094     1     5    16    10
 0.0025920304     1     5    16    12
 0.0008290677     1     5    16    14
 -0.0052796532     1     5    16    16
 0.0841380992     1     6     2     1
 0.0006319546     1     6     2     2
 0.0008910167     1     6     2     3
 0.0011154216     1     6     2     5
 0.0001208887     1     6     2     7
 0.0001774660     1     6     2     8
 -0.0002498382     1     6     2     9
 0.0007562015     1     6     2    10
 0.0007515031     1     6     2    12
 0.0014518075     1     6     2    14
 -0.0010291998     1     6     2    16
 -0.0677835113     1     6     3     1
 0.0031855281     1     6     3     2
 0.0036574742     1     6     3     3
 -0.0014678720     1     6     3     5
 0.0015234703     1     6     3     7
 -0.0005157925     1     6     3     8
 -0.0002604678     1     6     3     9
 0.0026372225     1     6     3    10
 0.0010972700     1     6     3    12
 -0.0010131110     1     6     3    14
 0.0001684751     1     6     3    16
 0.0067147729     1     6     4     4
 0.0032841915     1     6     4    11
 0.0021736054     1     6     4    13
 0.0004461711     1     6     4    15
 -0.2789317994     1     6     5     1
 0.0171399136     1     6     5     2
 -0.0062927914     1     6     5     3
 0.0032086557     1     6     5     5
 0.0021233874     1     6     5     7
 -0.0009490048     1     6     5     8
 0.0030906871     1     6     5     9
 -0.0008265616     1     6     5    10
 0.0012505802     1     6     5    12
 -0.0029580856     1     6     5    14
 -0.0018515527     1     6     5    16
 -0.5012510457     1     6     6     1
 0.0133463307     1     6     6     2
 -0.0026211735     1     6     6     3
 0.0060878169     1     6     6     5
 0.0022296781     1     6     6     7
 -0.0003878091     1     6     6     8
 0.0025328698     1     6     6     9
 -0.0001694198     1     6     6    10
 0.0008286949     1     6     6    12
 -0.0039246178     1     6     6    14
 -0.0011242301     1     6     6    16
 -0.0292586958     1     6     7     1
 0.0032580573     1     6     7     2
 0.0010776948     1     6     7     3
 0.0007818503     1     6     7     5
 0.0013815120     1     6     7     7
 -0.0000072641     1     6     7     8
 0.0006899538     1     6     7     9
 0.0009305676     1     6     7    10
 -0.0000864176     1     6     7    12
 -0.0019092181     1     6     7    14
 -0.0001478341     1     6     7    16
 0.1132715510     1     6     8     1
 -0.0040659645     1     6     8     2
 0.0006463009     1     6     8     3
 -0.0024068849     1     6     8     5
 -0.0005592128     1     6     8     7
 -0.0010942118     1     6     8     8
 -0.0008964419     1     6     8     9
 0.0003283496     1     6     8    10
 -0.0004888206     1     6     8    12
 0.0013252537     1     6     8    14
 0.0006186055     1     6     8    16
 -0.0067154551     1     6     9     1
 0.0017030821     1     6     9     2
 -0.0008452167     1     6     9     3
 0.0006888718     1     6     9     5
 0.0004879456     1     6     9     7
 -0.0001517061     1     6     9     8
 -0.0004985802     1     6     9     9
 0.0006017798     1     6     9    10
 0.0010017019     1     6     9    12
 -0.0006360142     1     6     9    14
 -0.0003531324     1     6     9    16
 0.0335166277     1     6    10     1
 -0.0018890326     1     6    10     2
 0.0041396059     1     6    10     3
 -0.0017142548     1     6    10     5
 0.0004046987     1     6    10     7
 0.0001962464     1     6    10     8
 -0.0000587336     1     6    10     9
 0.0030581816     1     6    10    10
 -0.0003155884     1     6    10    12
 0.0011048402     1     6    10    14
 -0.0000078208     1     6    10    16
 0.0035971839     1     6    11     4
 -0.0001729135     1     6    11    11
 0.0020270342     1     6    11    13
 0.0009043767     1     6    11    15
 0.0933183083     1     6    12     1
 -0.0043828494     1     6    12     2
 0.0010145820     1     6    12     3
 -0.0019008654     1     6    12     5
 -0.0013778708     1     6    12     7
 -0.0000614620     1     6    12     8
 -0.0000982317     1     6    12     9
 -0.0006396041     1     6    12    10
 -0.0006158507     1     6    12    12
 0.0019575224     1     6    12    14
 0.0011081079     1     6    12    16
 0.0029743895     1     6    13     4
 0.0022031849     1     6    13    11
 0.0015813969     1     6    13    13
 0.0001997743     1     6    13    15
 0.1421976278     1     6    14     1
 -0.0105729016     1     6    14     2
 0.0015557806     1     6    14     3
 -0.0035071336     1     6    14     5
 -0.0031162482     1     6    14     7
 0.0004688896     1     6    14     8
 -0.0023653226     1     6    14     9
 0.0002277188     1     6    14    10
 -0.0004313225     1     6    14    12
 0.0054741435     1     6    14    14
 0.0019960200     1     6    14    16
 0.0007129220     1     6    15     4
 0.0009729479     1     6    15    11
 0.0002140467     1     6    15    13
 0.0002962445     1     6    15    15
 -0.1612759083     1     6    16     1
 0.0063949523     1     6    16     2
 -0.0016015396     1     6    16     3
 0.0029230121     1     6    16     5
 0.0012661738     1     6    16     7
 0.0000392305     1     6    16     8
 0.0012465381     1     6    16     9
 -0.0006125813     1     6    16    10
 0.0011177838     1     6    16    12
 -0.0012240592     1     6    16    14
 -0.0026756538     1     6    16    16
 -0.0976385868     1     7     2     1
 0.0020237996     1     7     2     2
 0.0007399791     1     7     2     3
 0.0004528446     1     7     2     5
 -0.0001208887     1     7     2     6
 0.0000784894     1     7     2     8
 -0.0000433290     1     7     2     9
 -0.0008483215     1     7     2    10
 0.0003074775     1     7     2    12
 0.0003590197     1     7     2    14
 -0.0004611893     1     7     2    16