&FCI NORB= 11,NELEC= 10,MS2=0,
 ORBSYM=1,1,1,1,1,1,1,1,1,1,1
 ISYM=1,
&END
 0.9830566103     1     1     2     2
 0.0727727878     1     1     2     4
 -0.1736414795     1     1     2     6
 0.1410378662     1     1     2     9
 -0.0166927761     1     1     2    10
 0.8594516324     1     1     3     3
 -0.2201626982     1     1     3     7
 0.1482191186     1     1     3     8
 0.0727727878     1     1     4     2
 0.9538245029     1     1     4     4
 0.0995068416     1     1     4     6
 -0.1499046213     1     1     4     9
 -0.3487312451     1     1     4    10
 1.0082603489     1     1     5     5
 0.4402288026     1     1     5    11
 -0.1736414795     1     1     6     2
 0.0995068416     1     1     6     4
 0.3990724236     1     1     6     6
 -0.1605448595     1     1     6     9
 -0.0848402825     1     1     6    10
 -0.2201626982     1     1     7     3
 0.3924379478     1     1     7     7
 -0.1544107135     1     1     7     8
 0.1482191186     1     1     8     3
 -0.1544107135     1     1     8     7
 0.5538831596     1     1     8     8
 0.1410378662     1     1     9     2
 -0.1499046213     1     1     9     4
 -0.1605448595     1     1     9     6
 0.5746014706     1     1     9     9
 0.1223776053     1     1     9    10
 -0.0166927761     1     1    10     2
 -0.3487312451     1     1    10     4
 -0.0848402825     1     1    10     6
 0.1223776053     1     1    10     9
 0.7946296788     1     1    10    10
 0.4402288026     1     1    11     5
 0.9484047051     1     1    11    11
 -0.9830566103     1     2     2     1
 -0.0068274387     1     2     2     4
 -0.0023391596     1     2     2     6
 0.0042659605     1     2     2     9
 0.0089549420     1     2     2    10
 0.0299813156     1     2     3     3
 -0.0164104513     1     2     3     7
 0.0164861067     1     2     3     8
 -0.0727727878     1     2     4     1
 0.0355523830     1     2     4     4
 0.0094375778     1     2     4     6
 -0.0166814883     1     2     4     9
 -0.0355171589     1     2     4    10
 0.0412361002     1     2     5     5
 0.0474148690     1     2     5    11
 0.1736414795     1     2     6     1
 0.0092162231     1     2     6     4
 0.0026536617     1     2     6     6
 -0.0049377948     1     2     6     9
 -0.0101287436     1     2     6    10
 -0.0128561639     1     2     7     3
 0.0073373625     1     2     7     7
 -0.0074097530     1     2     7     8
 0.0115070706     1     2     8     3
 -0.0064647803     1     2     8     7
 0.0061432736     1     2     8     8
 -0.1410378662     1     2     9     1
 -0.0137896673     1     2     9     4
 -0.0040125237     1     2     9     6
 0.0068011404     1     2     9     9
 0.0157729575     1     2     9    10
 0.0166927761     1     2    10     1
 -0.0233548627     1     2    10     4
 -0.0061605614     1     2    10     6
 0.0119826037     1     2    10     9
 0.0266700822     1     2    10    10
 0.0308926487     1     2    11     5
 0.0405111496     1     2    11    11
 -0.0031981077     1     3     2     7
 0.0047024231     1     3     2     8
 -0.8594516324     1     3     3     1
 -0.0299813156     1     3     3     2
 -0.0104268555     1     3     3     4
 0.0049267625     1     3     3     6
 0.0006756619     1     3     3     9
 0.0052373505     1     3     3    10
 0.0018162515     1     3     4     7
 -0.0060710704     1     3     4     8
 -0.0025420447     1     3     6     7
 -0.0003678095     1     3     6     8
 0.2201626982     1     3     7     1
 0.0128561639     1     3     7     2
 0.0044376992     1     3     7     4
 -0.0061434118     1     3     7     6
 0.0033696074     1     3     7     9
 -0.0009725454     1     3     7    10
 -0.1482191186     1     3     8     1
 -0.0115070706     1     3     8     2
 -0.0035697007     1     3     8     4
 0.0048225186     1     3     8     6
 -0.0088637864     1     3     8     9
 -0.0032511182     1     3     8    10
 0.0022149392     1     3     9     7
 -0.0048475609     1     3     9     8
 -0.0011562735     1     3    10     7
 0.0022192520     1     3    10     8
 -0.0727727878     1     4     2     1
 0.0068274387     1     4     2     2
 -0.0000105184     1     4     2     6
 -0.0025796938     1     4     2     9
 -0.0114661342     1     4     2    10
 0.0104268555     1     4     3     3
 -0.0026627123     1     4     3     7
 -0.0023951340     1     4     3     8
 -0.9538245029     1     4     4     1
 -0.0355523830     1     4     4     2
 0.0108931152     1     4     4     6
 -0.0128526816     1     4     4     9
 -0.0059834735     1     4     4    10
 0.0139475610     1     4     5     5
 0.0150547395     1     4     5    11
 -0.0995068416     1     4     6     1
 -0.0092162231     1     4     6     2
 0.0056121775     1     4     6     6
 -0.0052075992     1     4     6     9
 -0.0023575864     1     4     6    10
 -0.0044376992     1     4     7     3
 0.0038776197     1     4     7     7
 -0.0016832936     1     4     7     8
 0.0035697007     1     4     8     3
 -0.0040457204     1     4     8     7
 0.0061575619     1     4     8     8
 0.1499046213     1     4     9     1
 0.0137896673     1     4     9     2
 -0.0070008414     1     4     9     6
 0.0111092738     1     4     9     9
 -0.0001571132     1     4     9    10
 0.3487312451     1     4    10     1
 0.0233548627     1     4    10     2
 -0.0121674437     1     4    10     6
 0.0104073906     1     4    10     9
 0.0046997481     1     4    10    10
 0.0105799994     1     4    11     5
 0.0136122323     1     4    11    11
 0.0156742314     1     5     2    11
 0.0042860822     1     5     4    11
 -1.0082603489     1     5     5     1
 -0.0412361002     1     5     5     2
 -0.0139475610     1     5     5     4
 0.0102371110     1     5     5     6
 -0.0123974226     1     5     5     9
 0.0092439771     1     5     5    10
 0.0002854443     1     5     6    11
 0.0047071378     1     5     9    11
 -0.0024764397     1     5    10    11
 -0.4402288026     1     5    11     1
 -0.0308926487     1     5    11     2
 -0.0105799994     1     5    11     4
 0.0130153047     1     5    11     6
 -0.0107977058     1     5    11     9
 0.0076891247     1     5    11    10
 0.1736414795     1     6     2     1
 0.0023391596     1     6     2     2
 0.0000105184     1     6     2     4
 -0.0009261996     1     6     2     9
 -0.0037166097     1     6     2    10
 -0.0049267625     1     6     3     3
 0.0036847013     1     6     3     7
 -0.0052179631     1     6     3     8
 -0.0995068416     1     6     4     1
 -0.0094375778     1     6     4     2
 -0.0108931152     1     6     4     4
 0.0018433876     1     6     4     9
 0.0097498305     1     6     4    10
 -0.0102371110     1     6     5     5
 -0.0124573310     1     6     5    11
 -0.3990724236     1     6     6     1
 -0.0026536617     1     6     6     2
 -0.0056121775     1     6     6     4
 0.0013378461     1     6     6     9
 0.0051138249     1     6     6    10
 0.0061434118     1     6     7     3
 -0.0029066910     1     6     7     7
 0.0034239377     1     6     7     8
 -0.0048225186     1     6     8     3
 0.0020114423     1     6     8     7
 -0.0011949963     1     6     8     8
 0.1605448595     1     6     9     1
 0.0040125237     1     6     9     2
 0.0070008414     1     6     9     4
 -0.0002359384     1     6     9     9
 -0.0075411455     1     6     9    10
 0.0848402825     1     6    10     1
 0.0061605614     1     6    10     2
 0.0121674437     1     6    10     4
 -0.0032864069     1     6    10     9
 -0.0116323634     1     6    10    10
 -0.0130153047     1     6    11     5
 -0.0157941345     1     6    11    11
 0.0031981077     1     7     2     3
 -0.0009088650     1     7     2     8
 0.2201626982     1     7     3     1
 0.0164104513     1     7     3     2
 0.0026627123     1     7     3     4
 -0.0036847013     1     7     3     6
 0.0011827084     1     7     3     9
 0.0000962012     1     7     3    10
 -0.0018162515     1     7     4     3
 0.0023898437     1     7     4     8
 0.0025420447     1     7     6     3
 0.0014190719     1     7     6     8
 -0.3924379478     1     7     7     1
 -0.0073373625     1     7     7     2
 -0.0038776197     1     7     7     4
 0.0029066910     1     7     7     6
 -0.0012224486     1     7     7     9
 0.0018524956     1     7     7    10
 0.1544107135     1     7     8     1
 0.0064647803     1     7     8     2
 0.0040457204     1     7     8     4
 -0.0020114423     1     7     8     6
 0.0036899619     1     7     8     9
 -0.0002818057     1     7     8    10
 -0.0022149392     1     7     9     3
 0.0014487118     1     7     9     8
 0.0011562735     1     7    10     3
 -0.0005899942     1     7    10     8
 -0.0047024231     1     8     2     3
 0.0009088650     1     8     2     7
 -0.1482191186     1     8     3     1
 -0.0164861067     1     8     3     2
 0.0023951340     1     8     3     4
 0.0052179631     1     8     3     6
 -0.0039682575     1     8     3     9
 -0.0050740217     1     8     3    10
 0.0060710704     1     8     4     3
 -0.0023898437     1     8     4     7
 0.0003678095     1     8     6     3
 -0.0014190719     1     8     6     7
 0.1544107135     1     8     7     1
 0.0074097530     1     8     7     2
 0.0016832936     1     8     7     4
 -0.0034239377     1     8     7     6
 0.0022372034     1     8     7     9
 0.0003220690     1     8     7    10
 -0.5538831596     1     8     8     1
 -0.0061432736     1     8     8     2
 -0.0061575619     1     8     8     4
 0.0011949963     1     8     8     6
 -0.0023670176     1     8     8     9
 0.0023901023     1     8     8    10
 0.0048475609     1     8     9     3
 -0.0014487118     1     8     9     7
 -0.0022192520     1     8    10     3
 0.0005899942     1     8    10     7
 -0.1410378662     1     9     2     1
 -0.0042659605     1     9     2     2
 0.0025796938     1     9     2     4
 0.0009261996     1     9     2     6
 0.0036231292     1     9     2    10
 -0.0006756619     1     9     3     3
 -0.0011827084     1     9     3     7
 0.0039682575     1     9     3     8
 0.1499046213     1     9     4     1
 0.0166814883     1     9     4     2
 0.0128526816     1     9     4     4
 -0.0018433876     1     9     4     6
 -0.0104426182     1     9     4    10
 0.0123974226     1     9     5     5
 0.0150298326     1     9     5    11
 0.1605448595     1     9     6     1
 0.0049377948     1     9     6     2
 0.0052075992     1     9     6     4
 -0.0013378461     1     9     6     6
 -0.0042547495     1     9     6    10
 -0.0033696074     1     9     7     3
 0.0012224486     1     9     7     7
 -0.0022372034     1     9     7     8
 0.0088637864     1     9     8     3
 -0.0036899619     1     9     8     7
 0.0023670176     1     9     8     8
 -0.5746014706     1     9     9     1
 -0.0068011404     1     9     9     2
 -0.0111092738     1     9     9     4
 0.0002359384     1     9     9     6
 0.0116051956     1     9     9    10
 -0.1223776053     1     9    10     1
 -0.0119826037     1     9    10     2
 -0.0104073906     1     9    10     4
 0.0032864069     1     9    10     6
 0.0090719795     1     9    10    10
 0.0107977058     1     9    11     5
 0.0134017345     1     9    11    11
 0.0166927761     1    10     2     1
 -0.0089549420     1    10     2     2
 0.0114661342     1    10     2     4
 0.0037166097     1    10     2     6
 -0.0036231292     1    10     2     9
 -0.0052373505     1    10     3     3
 -0.0000962012     1    10     3     7
 0.0050740217     1    10     3     8
 0.3487312451     1    10     4     1
 0.0355171589     1    10     4     2
 0.0059834735     1    10     4     4
 -0.0097498305     1    10     4     6
 0.0104426182     1    10     4     9
 -0.0092439771     1    10     5     5
 -0.0096483779     1    10     5    11
 0.0848402825     1    10     6     1
 0.0101287436     1    10     6     2
 0.0023575864     1    10     6     4
 -0.0051138249     1    10     6     6
 0.0042547495     1    10     6     9
 0.0009725454     1    10     7     3
 -0.0018524956     1    10     7     7
 -0.0003220690     1    10     7     8
 0.0032511182     1    10     8     3
 0.0002818057     1    10     8     7
 -0.0023901023     1    10     8     8
 -0.1223776053     1    10     9     1
 -0.0157729575     1    10     9     2
 0.0001571132     1    10     9     4
 0.0075411455     1    10     9     6
 -0.0116051956     1    10     9     9
 -0.7946296788     1    10    10     1
 -0.0266700822     1    10    10     2
 -0.0046997481     1    10    10     4
 0.0116323634     1    10    10     6
 -0.0090719795     1    10    10     9
 -0.0076891247     1    10    11     5
 -0.0093597655     1    10    11    11
 -0.0156742314     1    11     2     5
 -0.0042860822     1    11     4     5
 -0.4402288026     1    11     5     1
 -0.0474148690     1    11     5     2
 -0.0150547395     1    11     5     4
 0.0124573310     1    11     5     6
 -0.0150298326     1    11     5     9
 0.0096483779     1    11     5    10
 -0.0002854443     1    11     6     5
 -0.0047071378     1    11     9     5
 0.0024764397     1    11    10     5
 -0.9484047051     1    11    11     1
 -0.0405111496     1    11    11     2
 -0.0136122323     1    11    11     4
 0.0157941345     1    11    11     6
 -0.0134017345     1    11    11     9
 0.0093597655     1    11    11    10
 -0.9830566103     2     1     1     2
 -0.0727727878     2     1     1     4
 0.1736414795     2     1     1     6
 -0.1410378662     2     1     1     9
 0.0166927761     2     1     1    10
 0.0299813156     2     1     3     3
 -0.0128561639     2     1     3     7
 0.0115070706     2     1     3     8
 -0.0068274387     2     1     4     2
 0.0355523830     2     1     4     4
 0.0092162231     2     1     4     6
 -0.0137896673     2     1     4     9
 -0.0233548627     2     1     4    10
 0.0412361002     2     1     5     5
 0.0308926487     2     1     5    11
 -0.0023391596     2     1     6     2
 0.0094375778     2     1     6     4
 0.0026536617     2     1     6     6
 -0.0040125237     2     1     6     9
 -0.0061605614     2     1     6    10
 -0.0164104513     2     1     7     3
 0.0073373625     2     1     7     7
 -0.0064647803     2     1     7     8
 0.0164861067     2     1     8     3
 -0.0074097530     2     1     8     7
 0.0061432736     2     1     8     8
 0.0042659605     2     1     9     2
 -0.0166814883     2     1     9     4
 -0.0049377948     2     1     9     6
 0.0068011404     2     1     9     9
 0.0119826037     2     1     9    10
 0.0089549420     2     1    10     2
 -0.0355171589     2     1    10     4
 -0.0101287436     2     1    10     6
 0.0157729575     2     1    10     9
 0.0266700822     2     1    10    10
 0.0474148690     2     1    11     5
 0.0405111496     2     1    11    11
 0.9830566103     2     2     1     1
 0.0068274387     2     2     1     4
 0.0023391596     2     2     1     6
 -0.0042659605     2     2     1     9
 -0.0089549420     2     2     1    10
 0.5251053132     2     2     3     3
 -0.0842519435     2     2     3     7
 0.0310673509     2     2     3     8
 0.0068274387     2     2     4     1
 0.5527873346     2     2     4     4
 0.0420727128     2     2     4     6
 -0.0492814128     2     2     4     9
 -0.1125190632     2     2     4    10
 0.5840765311     2     2     5     5
 0.1424181289     2     2     5    11
 0.0023391596     2     2     6     1
 0.0420727128     2     2     6     4
 0.3321532300     2     2     6     6
 -0.0793888042     2     2     6     9
 -0.0405093260     2     2     6    10
 -0.0842519435     2     2     7     3
 0.3277746431     2     2     7     7
 -0.0855909747     2     2     7     8
 0.0310673509     2     2     8     3
 -0.0855909747     2     2     8     7
 0.4730329459     2     2     8     8
 -0.0042659605     2     2     9     1
 -0.0492814128     2     2     9     4
 -0.0793888042     2     2     9     6
 0.4710775350     2     2     9     9
 0.0243814898     2     2     9    10
 -0.0089549420     2     2    10     1
 -0.1125190632     2     2    10     4
 -0.0405093260     2     2    10     6
 0.0243814898     2     2    10     9
 0.5371587093     2     2    10    10
 0.1424181289     2     2    11     5
 0.5815603255     2     2    11    11
 0.0031981077     2     3     1     7
 -0.0047024231     2     3     1     8
 -0.0299813156     2     3     3     1
 -0.5251053132     2     3     3     2
 -0.0032898186     2     3     3     4
 0.0764744200     2     3     3     6
 -0.0786906618     2     3     3     9
 0.0201978832     2     3     3    10
 -0.0150773630     2     3     4     7
 0.0393579289     2     3     4     8
 0.0401617313     2     3     6     7
 0.0001461737     2     3     6     8
 0.0164104513     2     3     7     1
 0.0842519435     2     3     7     2
 -0.0002112029     2     3     7     4
 0.0191605242     2     3     7     6
 0.0074431178     2     3     7     9
 -0.0035456886     2     3     7    10
 -0.0164861067     2     3     8     1
 -0.0310673509     2     3     8     2
 0.0051606153     2     3     8     4
 0.0056048564     2     3     8     6
 0.0511019769     2     3     8     9
 0.0066847448     2     3     8    10
 -0.0147617307     2     3     9     7
 0.0537583455     2     3     9     8
 0.0002986204     2     3    10     7
 0.0051264484     2     3    10     8
 0.0727727878     2     4     1     1
 -0.0068274387     2     4     1     2
 0.0000105184     2     4     1     6
 0.0025796938     2     4     1     9
 0.0114661342     2     4     1    10
 0.0032898186     2     4     3     3
 -0.0147110024     2     4     3     7
 0.0346570748     2     4     3     8
 -0.0355523830     2     4     4     1
 -0.5527873346     2     4     4     2
 0.0767215579     2     4     4     6
 -0.0513087030     2     4     4     9
 -0.0154387195     2     4     4    10
 0.0065088376     2     4     5     5
 0.0117860218     2     4     5    11
 -0.0094375778     2     4     6     1
 -0.0420727128     2     4     6     2
 -0.0101455382     2     4     6     6
 -0.0002476225     2     4     6     9
 0.0203308678     2     4     6    10
 0.0002112029     2     4     7     3
 -0.0142385918     2     4     7     7
 -0.0040865268     2     4     7     8
 -0.0051606153     2     4     8     3
 0.0047510173     2     4     8     7
 -0.0189916910     2     4     8     8
 0.0166814883     2     4     9     1
 0.0492814128     2     4     9     2
 -0.0049658575     2     4     9     6
 -0.0272643647     2     4     9     9
 0.0097613310     2     4     9    10
 0.0355171589     2     4    10     1
 0.1125190632     2     4    10     2
 -0.0065701939     2     4    10     6
 0.0341155462     2     4    10     9
 0.0177364080     2     4    10    10
 0.0097553840     2     4    11     5
 0.0243682976     2     4    11    11
 -0.0156742314     2     5     1    11
 0.0024491352     2     5     4    11
 -0.0412361002     2     5     5     1
 -0.5840765311     2     5     5     2
 -0.0065088376     2     5     5     4
 0.0729958786     2     5     5     6
 -0.0326705914     2     5     5     9
 -0.0081571335     2     5     5    10
 -0.0238489877     2     5     6    11
 0.0015984309     2     5     9    11
 -0.0016147475     2     5    10    11
 -0.0474148690     2     5    11     1
 -0.1424181289     2     5    11     2
 -0.0097553840     2     5    11     4
 0.0114880734     2     5    11     6
 -0.0267410962     2     5    11     9
 -0.0017797334     2     5    11    10
 -0.1736414795     2     6     1     1
 -0.0023391596     2     6     1     2
 -0.0000105184     2     6     1     4
 0.0009261996     2     6     1     9
 0.0037166097     2     6     1    10
 -0.0764744200     2     6     3     3
 0.0210170151     2     6     3     7
 -0.0055866967     2     6     3     8
 -0.0092162231     2     6     4     1
 -0.0420727128     2     6     4     2
 -0.0767215579     2     6     4     4
 0.0048305820     2     6     4     9
 0.0266740146     2     6     4    10
 -0.0729958786     2     6     5     5
 -0.0346021525     2     6     5    11
 -0.0026536617     2     6     6     1
 -0.3321532300     2     6     6     2
 0.0101455382     2     6     6     4
 0.0124105362     2     6     6     9
 0.0129107215     2     6     6    10
 -0.0191605242     2     6     7     3
 -0.0147222394     2     6     7     7
 0.0234755384     2     6     7     8
 -0.0056048564     2     6     8     3
 0.0136600046     2     6     8     7
 -0.0393209616     2     6     8     8
 0.0049377948     2     6     9     1
 0.0793888042     2     6     9     2
 0.0049658575     2     6     9     4
 -0.0295942245     2     6     9     9
 -0.0054870475     2     6     9    10
 0.0101287436     2     6    10     1
 0.0405093260     2     6    10     2
 0.0065701939     2     6    10     4
 -0.0012967919     2     6    10     9
 -0.0561915963     2     6    10    10
 -0.0114880734     2     6    11     5
 -0.0677421507     2     6    11    11
 -0.0031981077     2     7     1     3
 0.0009088650     2     7     1     8
 0.0128561639     2     7     3     1
 0.0842519435     2     7     3     2
 0.0147110024     2     7     3     4
 -0.0210170151     2     7     3     6
 0.0215748485     2     7     3     9
 -0.0036876499     2     7     3    10
 0.0150773630     2     7     4     3
 -0.0082358550     2     7     4     8
 -0.0401617313     2     7     6     3
 0.0098420783     2     7     6     8
 -0.0073373625     2     7     7     1
 -0.3277746431     2     7     7     2
 0.0142385918     2     7     7     4
 0.0147222394     2     7     7     6
 0.0005541161     2     7     7     9
 0.0022091165     2     7     7    10
 0.0074097530     2     7     8     1
 0.0855909747     2     7     8     2
 -0.0047510173     2     7     8     4
 -0.0136600046     2     7     8     6
 0.0046984261     2     7     8     9
 -0.0008370297     2     7     8    10
 0.0147617307     2     7     9     3
 -0.0069362442     2     7     9     8
 -0.0002986204     2     7    10     3
 -0.0021004333     2     7    10     8
 0.0047024231     2     8     1     3
 -0.0009088650     2     8     1     7
 -0.0115070706     2     8     3     1
 -0.0310673509     2     8     3     2
 -0.0346570748     2     8     3     4
 0.0055866967     2     8     3     6
 -0.0027138513     2     8     3     9
 0.0009274267     2     8     3    10
 -0.0393579289     2     8     4     3
 0.0082358550     2     8     4     7
 -0.0001461737     2     8     6     3
 -0.0098420783     2     8     6     7
 0.0064647803     2     8     7     1
 0.0855909747     2     8     7     2
 0.0040865268     2     8     7     4
 -0.0234755384     2     8     7     6
 0.0115960796     2     8     7     9
 0.0014719972     2     8     7    10
 -0.0061432736     2     8     8     1
 -0.4730329459     2     8     8     2
 0.0189916910     2     8     8     4
 0.0393209616     2     8     8     6
 -0.0239576007     2     8     8     9
 -0.0018268032     2     8     8    10
 -0.0537583455     2     8     9     3
 0.0069362442     2     8     9     7
 -0.0051264484     2     8    10     3
 0.0021004333     2     8    10     7
 0.1410378662     2     9     1     1
 0.0042659605     2     9     1     2
 -0.0025796938     2     9     1     4
 -0.0009261996     2     9     1     6
 -0.0036231292     2     9     1    10
 0.0786906618     2     9     3     3
 -0.0215748485     2     9     3     7
 0.0027138513     2     9     3     8
 0.0137896673     2     9     4     1
 0.0492814128     2     9     4     2
 0.0513087030     2     9     4     4
 -0.0048305820     2     9     4     6
 -0.0236060283     2     9     4    10
 0.0326705914     2     9     5     5
 0.0275212173     2     9     5    11
 0.0040125237     2     9     6     1
 0.0793888042     2     9     6     2
 0.0002476225     2     9     6     4
 -0.0124105362     2     9     6     6
 -0.0041887002     2     9     6    10
 -0.0074431178     2     9     7     3
 -0.0005541161     2     9     7     7
 -0.0115960796     2     9     7     8
 -0.0511019769     2     9     8     3
 -0.0046984261     2     9     8     7
 0.0239576007     2     9     8     8
 -0.0068011404     2     9     9     1
 -0.4710775350     2     9     9     2
 0.0272643647     2     9     9     4
 0.0295942245     2     9     9     6
 0.0075750320     2     9     9    10
 -0.0157729575     2     9    10     1
 -0.0243814898     2     9    10     2
 -0.0341155462     2     9    10     4
 0.0012967919     2     9    10     6
 0.0323041890     2     9    10    10
 0.0267410962     2     9    11     5
 0.0453603743     2     9    11    11
 -0.0166927761     2    10     1     1
 0.0089549420     2    10     1     2
 -0.0114661342     2    10     1     4
 -0.0037166097     2    10     1     6
 0.0036231292     2    10     1     9
 -0.0201978832     2    10     3     3
 0.0036876499     2    10     3     7
 -0.0009274267     2    10     3     8
 0.0233548627     2    10     4     1
 0.1125190632     2    10     4     2
 0.0154387195     2    10     4     4
 -0.0266740146     2    10     4     6
 0.0236060283     2    10     4     9
 0.0081571335     2    10     5     5
 -0.0003629610     2    10     5    11
 0.0061605614     2    10     6     1
 0.0405093260     2    10     6     2
 -0.0203308678     2    10     6     4
 -0.0129107215     2    10     6     6
 0.0041887002     2    10     6     9
 0.0035456886     2    10     7     3
 -0.0022091165     2    10     7     7
 -0.0014719972     2    10     7     8
 -0.0066847448     2    10     8     3
 0.0008370297     2    10     8     7
 0.0018268032     2    10     8     8
 -0.0119826037     2    10     9     1
 -0.0243814898     2    10     9     2
 -0.0097613310     2    10     9     4
 0.0054870475     2    10     9     6
 -0.0075750320     2    10     9     9
 -0.0266700822     2    10    10     1
 -0.5371587093     2    10    10     2
 -0.0177364080     2    10    10     4
 0.0561915963     2    10    10     6
 -0.0323041890     2    10    10     9
 0.0017797334     2    10    11     5
 -0.0050759322     2    10    11    11
 0.0156742314     2    11     1     5
 -0.0024491352     2    11     4     5
 -0.0308926487     2    11     5     1
 -0.1424181289     2    11     5     2
 -0.0117860218     2    11     5     4
 0.0346021525     2    11     5     6
 -0.0275212173     2    11     5     9
 0.0003629610     2    11     5    10
 0.0238489877     2    11     6     5
 -0.0015984309     2    11     9     5
 0.0016147475     2    11    10     5
 -0.0405111496     2    11    11     1
 -0.5815603255     2    11    11     2
 -0.0243682976     2    11    11     4
 0.0677421507     2    11    11     6
 -0.0453603743     2    11    11     9
 0.0050759322     2    11    11    10
 -0.8594516324     3     1     1     3
 0.2201626982     3     1     1     7
 -0.1482191186     3     1     1     8
 -0.0299813156     3     1     2     3
 0.0128561639     3     1     2     7
 -0.0115070706     3     1     2     8
 -0.0104268555     3     1     4     3
 0.0044376992     3     1     4     7
 -0.0035697007     3     1     4     8
 0.0049267625     3     1     6     3
 -0.0061434118     3     1     6     7
 0.0048225186     3     1     6     8
 -0.0031981077     3     1     7     2
 0.0018162515     3     1     7     4
 -0.0025420447     3     1     7     6
 0.0022149392     3     1     7     9
 -0.0011562735     3     1     7    10
 0.0047024231     3     1     8     2
 -0.0060710704     3     1     8     4
 -0.0003678095     3     1     8     6
 -0.0048475609     3     1     8     9
 0.0022192520     3     1     8    10
 0.0006756619     3     1     9     3
 0.0033696074     3     1     9     7
 -0.0088637864     3     1     9     8
 0.0052373505     3     1    10     3
 -0.0009725454     3     1    10     7
 -0.0032511182     3     1    10     8
 -0.0299813156     3     2     1     3
 0.0164104513     3     2     1     7
 -0.0164861067     3     2     1     8
 -0.5251053132     3     2     2     3
 0.0842519435     3     2     2     7
 -0.0310673509     3     2     2     8
 -0.0032898186     3     2     4     3
 -0.0002112029     3     2     4     7
 0.0051606153     3     2     4     8
 0.0764744200     3     2     6     3
 0.0191605242     3     2     6     7
 0.0056048564     3     2     6     8
 0.0031981077     3     2     7     1
 -0.0150773630     3     2     7     4
 0.0401617313     3     2     7     6
 -0.0147617307     3     2     7     9
 0.0002986204     3     2     7    10
 -0.0047024231     3     2     8     1
 0.0393579289     3     2     8     4
 0.0001461737     3     2     8     6
 0.0537583455     3     2     8     9
 0.0051264484     3     2     8    10
 -0.0786906618     3     2     9     3
 0.0074431178     3     2     9     7
 0.0511019769     3     2     9     8
 0.0201978832     3     2    10     3
 -0.0035456886     3     2    10     7
 0.0066847448     3     2    10     8
 0.8594516324     3     3     1     1
 0.0299813156     3     3     1     2
 0.0104268555     3     3     1     4
 -0.0049267625     3     3     1     6
 -0.0006756619     3     3     1     9
 -0.0052373505     3     3     1    10
 0.0299813156     3     3     2     1
 0.5251053132     3     3     2     2
 0.0032898186     3     3     2     4
 -0.0764744200     3     3     2     6
 0.0786906618     3     3     2     9
 -0.0201978832     3     3     2    10
 0.0104268555     3     3     4     1
 0.0032898186     3     3     4     2
 0.5621541384     3     3     4     4
 0.0415331348     3     3     4     6
 -0.0516120641     3     3     4     9
 -0.1007703796     3     3     4    10
 0.5881485749     3     3     5     5
 0.1314101191     3     3     5    11
 -0.0049267625     3     3     6     1
 -0.0764744200     3     3     6     2
 0.0415331348     3     3     6     4
 0.3383631268     3     3     6     6
 -0.0790106620     3     3     6     9
 -0.0388239530     3     3     6    10
 0.2994769113     3     3     7     7
 -0.0564499015     3     3     7     8
 -0.0564499015     3     3     8     7