&FCI NORB= 12,NELEC= 10,MS2=0,
 ORBSYM=1,1,1,1,1,1,1,1,1,1,1,1
 ISYM=1,
&END
 0.9839101220     1     1     2     2
 -0.0672009642     1     1     2     4
 -0.1250384468     1     1     2     6
 -0.0340908471     1     1     2     9
 0.1075621898     1     1     2    10
 0.0725949717     1     1     2    12
 0.8707849271     1     1     3     3
 0.1447845503     1     1     3     7
 -0.0750782163     1     1     3     8
 -0.0672009642     1     1     4     2
 0.9506883238     1     1     4     4
 -0.0654307104     1     1     4     6
 0.1618877526     1     1     4     9
 0.1576964093     1     1     4    10
 0.0488726725     1     1     4    12
 0.9983094031     1     1     5     5
 0.2862346603     1     1     5    11
 -0.1250384468     1     1     6     2
 -0.0654307104     1     1     6     4
 0.3155608114     1     1     6     6
 -0.0074259994     1     1     6     9
 -0.1153308436     1     1     6    10
 -0.0620030140     1     1     6    12
 0.1447845503     1     1     7     3
 0.2839293715     1     1     7     7
 -0.0653080190     1     1     7     8
 -0.0750782163     1     1     8     3
 -0.0653080190     1     1     8     7
 0.3896308644     1     1     8     8
 -0.0340908471     1     1     9     2
 0.1618877526     1     1     9     4
 -0.0074259994     1     1     9     6
 0.3827115584     1     1     9     9
 0.0347131237     1     1     9    10
 0.0247590367     1     1     9    12
 0.1075621898     1     1    10     2
 0.1576964093     1     1    10     4
 -0.1153308436     1     1    10     6
 0.0347131237     1     1    10     9
 0.4570490527     1     1    10    10
 0.0437029486     1     1    10    12
 0.2862346603     1     1    11     5
 0.5397746850     1     1    11    11
 0.0725949717     1     1    12     2
 0.0488726725     1     1    12     4
 -0.0620030140     1     1    12     6
 0.0247590367     1     1    12     9
 0.0437029486     1     1    12    10
 0.3784738012     1     1    12    12
 -0.9839101220     1     2     2     1
 -0.0070079623     1     2     2     4
 0.0012768991     1     2     2     6
 -0.0030213156     1     2     2     9
 -0.0035761054     1     2     2    10
 -0.0015519669     1     2     2    12
 -0.0311774351     1     2     3     3
 -0.0108322010     1     2     3     7
 0.0086590997     1     2     3     8
 0.0672009642     1     2     4     1
 -0.0359989035     1     2     4     4
 0.0062648303     1     2     4     6
 -0.0116349860     1     2     4     9
 -0.0148904679     1     2     4    10
 -0.0063925974     1     2     4    12
 -0.0409302307     1     2     5     5
 -0.0239564919     1     2     5    11
 0.1250384468     1     2     6     1
 0.0059936264     1     2     6     4
 -0.0013657728     1     2     6     6
 0.0021699768     1     2     6     9
 0.0032478485     1     2     6    10
 0.0014125768     1     2     6    12
 -0.0079316351     1     2     7     3
 -0.0033961385     1     2     7     7
 0.0026669410     1     2     7     8
 0.0057114386     1     2     8     3
 0.0023506432     1     2     8     7
 -0.0020105884     1     2     8     8
 0.0340908471     1     2     9     1
 -0.0084349613     1     2     9     4
 0.0014819379     1     2     9     6
 -0.0039737433     1     2     9     9
 -0.0046368896     1     2     9    10
 -0.0014607779     1     2     9    12
 -0.1075621898     1     2    10     1
 -0.0121204552     1     2    10     4
 0.0026748989     1     2    10     6
 -0.0052792148     1     2    10     9
 -0.0064078377     1     2    10    10
 -0.0025689773     1     2    10    12
 -0.0174218287     1     2    11     5
 -0.0135769208     1     2    11    11
 -0.0725949717     1     2    12     1
 -0.0047882071     1     2    12     4
 0.0010513722     1     2    12     6
 -0.0015693296     1     2    12     9
 -0.0023257486     1     2    12    10
 -0.0008875402     1     2    12    12
 -0.0021364917     1     3     2     7
 0.0024248350     1     3     2     8
 -0.8707849271     1     3     3     1
 0.0311774351     1     3     3     2
 -0.0105721878     1     3     3     4
 -0.0041881109     1     3     3     6
 -0.0028783547     1     3     3     9
 -0.0005593347     1     3     3    10
 0.0042539311     1     3     3    12
 -0.0009878083     1     3     4     7
 0.0039694967     1     3     4     8
 -0.0018490770     1     3     6     7
 -0.0004192845     1     3     6     8
 -0.1447845503     1     3     7     1
 0.0079316351     1     3     7     2
 -0.0028010224     1     3     7     4
 -0.0036133679     1     3     7     6
 -0.0012613046     1     3     7     9
 0.0019235218     1     3     7    10
 0.0011614911     1     3     7    12
 0.0750782163     1     3     8     1
 -0.0057114386     1     3     8     2
 0.0018141262     1     3     8     4
 0.0017347189     1     3     8     6
 -0.0010280516     1     3     8     9
 -0.0040155096     1     3     8    10
 -0.0026800536     1     3     8    12
 -0.0009023484     1     3     9     7
 -0.0000364202     1     3     9     8
 0.0014217105     1     3    10     7
 -0.0018219944     1     3    10     8
 -0.0006456492     1     3    12     7
 -0.0006000119     1     3    12     8
 0.0672009642     1     4     2     1
 0.0070079623     1     4     2     2
 -0.0002807052     1     4     2     6
 -0.0023373393     1     4     2     9
 -0.0016565271     1     4     2    10
 -0.0011396141     1     4     2    12
 0.0105721878     1     4     3     3
 0.0019924179     1     4     3     7
 0.0020872681     1     4     3     8
 -0.9506883238     1     4     4     1
 0.0359989035     1     4     4     2
 -0.0081548456     1     4     4     6
 -0.0006431862     1     4     4     9
 0.0101616764     1     4     4    10
 0.0020990904     1     4     4    12
 0.0136548026     1     4     5     5
 0.0076679097     1     4     5    11
 0.0654307104     1     4     6     1
 -0.0059936264     1     4     6     2
 0.0032622142     1     4     6     6
 -0.0014157995     1     4     6     9
 -0.0035519110     1     4     6    10
 -0.0014412467     1     4     6    12
 0.0028010224     1     4     7     3
 0.0020854040     1     4     7     7
 -0.0009522211     1     4     7     8
 -0.0018141262     1     4     8     3
 -0.0021555715     1     4     8     7
 0.0012871704     1     4     8     8
 -0.1618877526     1     4     9     1
 0.0084349613     1     4     9     2
 -0.0041979411     1     4     9     6
 -0.0009974774     1     4     9     9
 0.0018743270     1     4     9    10
 0.0031884731     1     4     9    12
 -0.1576964093     1     4    10     1
 0.0121204552     1     4    10     2
 -0.0051709038     1     4    10     6
 -0.0017490338     1     4    10     9
 0.0067736459     1     4    10    10
 0.0030456718     1     4    10    12
 0.0061553604     1     4    11     5
 0.0044887406     1     4    11    11
 -0.0488726725     1     4    12     1
 0.0047882071     1     4    12     2
 -0.0025976230     1     4    12     6
 0.0024927809     1     4    12     9
 0.0041101669     1     4    12    10
 0.0031899035     1     4    12    12
 -0.0048623658     1     5     2    11
 0.0011010132     1     5     4    11
 -0.9983094031     1     5     5     1
 0.0409302307     1     5     5     2
 -0.0136548026     1     5     5     4
 -0.0077866177     1     5     5     6
 -0.0074301433     1     5     5     9
 0.0080570332     1     5     5    10
 0.0060874339     1     5     5    12
 -0.0021540475     1     5     6    11
 0.0014033332     1     5     9    11
 -0.0011645055     1     5    10    11
 -0.2862346603     1     5    11     1
 0.0174218287     1     5    11     2
 -0.0061553604     1     5    11     4
 -0.0069210238     1     5    11     6
 -0.0029560523     1     5    11     9
 0.0039609099     1     5    11    10
 0.0032691251     1     5    11    12
 -0.0004953539     1     5    12    11
 0.1250384468     1     6     2     1
 -0.0012768991     1     6     2     2
 0.0002807052     1     6     2     4
 0.0006900330     1     6     2     9
 0.0006091002     1     6     2    10
 0.0003739698     1     6     2    12
 0.0041881109     1     6     3     3
 0.0018014982     1     6     3     7
 -0.0021848790     1     6     3     8
 0.0654307104     1     6     4     1
 -0.0062648303     1     6     4     2
 0.0081548456     1     6     4     4
 0.0027823474     1     6     4     9
 0.0016758833     1     6     4    10
 0.0011598671     1     6     4    12
 0.0077866177     1     6     5     5
 0.0046920302     1     6     5    11
 -0.3155608114     1     6     6     1
 0.0013657728     1     6     6     2
 -0.0032622142     1     6     6     4
 -0.0008500767     1     6     6     9
 -0.0008125044     1     6     6    10
 -0.0003306228     1     6     6    12
 0.0036133679     1     6     7     3
 0.0011653122     1     6     7     7
 -0.0009962638     1     6     7     8
 -0.0017347189     1     6     8     3
 -0.0003737010     1     6     8     7
 0.0003471321     1     6     8     8
 0.0074259994     1     6     9     1
 -0.0014819379     1     6     9     2
 0.0041979411     1     6     9     4
 0.0017688565     1     6     9     9
 0.0016835387     1     6     9    10
 0.0001290156     1     6     9    12
 0.1153308436     1     6    10     1
 -0.0026748989     1     6    10     2
 0.0051709038     1     6    10     4
 0.0022830796     1     6    10     9
 0.0010783172     1     6    10    10
 0.0003731037     1     6    10    12
 0.0069210238     1     6    11     5
 0.0045568302     1     6    11    11
 0.0620030140     1     6    12     1
 -0.0010513722     1     6    12     2
 0.0025976230     1     6    12     4
 0.0003873137     1     6    12     9
 0.0003791116     1     6    12    10
 -0.0001924657     1     6    12    12
 0.0021364917     1     7     2     3
 0.0003108192     1     7     2     8
 -0.1447845503     1     7     3     1
 0.0108322010     1     7     3     2
 -0.0019924179     1     7     3     4
 -0.0018014982     1     7     3     6
 -0.0004266319     1     7     3     9
 0.0004839402     1     7     3    10
 0.0018221376     1     7     3    12
 0.0009878083     1     7     4     3
 0.0012166163     1     7     4     8
 0.0018490770     1     7     6     3
 -0.0006231088     1     7     6     8
 -0.2839293715     1     7     7     1
 0.0033961385     1     7     7     2
 -0.0020854040     1     7     7     4
 -0.0011653122     1     7     7     6
 -0.0008003757     1     7     7     9
 0.0003344389     1     7     7    10
 0.0002947478     1     7     7    12
 0.0653080190     1     7     8     1
 -0.0023506432     1     7     8     2
 0.0021555715     1     7     8     4
 0.0003737010     1     7     8     6
 0.0001353331     1     7     8     9
 -0.0008161472     1     7     8    10
 -0.0007274552     1     7     8    12
 0.0009023484     1     7     9     3
 -0.0002538872     1     7     9     8
 -0.0014217105     1     7    10     3
 -0.0002804320     1     7    10     8
 0.0006456492     1     7    12     3
 -0.0003811100     1     7    12     8
 -0.0024248350     1     8     2     3
 -0.0003108192     1     8     2     7
 0.0750782163     1     8     3     1
 -0.0086590997     1     8     3     2
 -0.0020872681     1     8     3     4
 0.0021848790     1     8     3     6
 -0.0009106908     1     8     3     9
 -0.0021997757     1     8     3    10
 -0.0020842417     1     8     3    12
 -0.0039694967     1     8     4     3
 -0.0012166163     1     8     4     7
 0.0004192845     1     8     6     3
 0.0006231088     1     8     6     7
 0.0653080190     1     8     7     1
 -0.0026669410     1     8     7     2
 0.0009522211     1     8     7     4
 0.0009962638     1     8     7     6
 0.0003895646     1     8     7     9
 -0.0005358065     1     8     7    10
 -0.0003477583     1     8     7    12
 -0.3896308644     1     8     8     1
 0.0020105884     1     8     8     2
 -0.0012871704     1     8     8     4
 -0.0003471321     1     8     8     6
 0.0000193156     1     8     8     9
 0.0007794819     1     8     8    10
 0.0005869635     1     8     8    12
 0.0000364202     1     8     9     3
 0.0002538872     1     8     9     7
 0.0018219944     1     8    10     3
 0.0002804320     1     8    10     7
 0.0006000119     1     8    12     3
 0.0003811100     1     8    12     7
 0.0340908471     1     9     2     1
 0.0030213156     1     9     2     2
 0.0023373393     1     9     2     4
 -0.0006900330     1     9     2     6
 0.0006706655     1     9     2    10
 0.0001285657     1     9     2    12
 0.0028783547     1     9     3     3
 0.0004266319     1     9     3     7
 0.0009106908     1     9     3     8
 -0.1618877526     1     9     4     1
 0.0116349860     1     9     4     2
 0.0006431862     1     9     4     4
 -0.0027823474     1     9     4     6
 0.0036181808     1     9     4    10
 0.0006950510     1     9     4    12
 0.0074301433     1     9     5     5
 0.0043686745     1     9     5    11
 0.0074259994     1     9     6     1
 -0.0021699768     1     9     6     2
 0.0014157995     1     9     6     4
 0.0008500767     1     9     6     6
 -0.0006020313     1     9     6    10
 -0.0002597785     1     9     6    12
 0.0012613046     1     9     7     3
 0.0008003757     1     9     7     7
 -0.0003895646     1     9     7     8
 0.0010280516     1     9     8     3
 -0.0001353331     1     9     8     7
 -0.0000193156     1     9     8     8
 -0.3827115584     1     9     9     1
 0.0039737433     1     9     9     2
 0.0009974774     1     9     9     4
 -0.0017688565     1     9     9     6
 0.0012816724     1     9     9    10
 0.0013746699     1     9     9    12
 -0.0347131237     1     9    10     1
 0.0052792148     1     9    10     2
 0.0017490338     1     9    10     4
 -0.0022830796     1     9    10     6
 0.0032952475     1     9    10    10
 0.0014686674     1     9    10    12
 0.0029560523     1     9    11     5
 0.0019991884     1     9    11    11
 -0.0247590367     1     9    12     1
 0.0015693296     1     9    12     2
 -0.0024927809     1     9    12     4
 -0.0003873137     1     9    12     6
 0.0002837453     1     9    12    10
 0.0006279003     1     9    12    12
 -0.1075621898     1    10     2     1
 0.0035761054     1    10     2     2
 0.0016565271     1    10     2     4
 -0.0006091002     1    10     2     6
 -0.0006706655     1    10     2     9
 -0.0002261163     1    10     2    12
 0.0005593347     1    10     3     3
 -0.0004839402     1    10     3     7
 0.0021997757     1    10     3     8
 -0.1576964093     1    10     4     1
 0.0148904679     1    10     4     2
 -0.0101616764     1    10     4     4
 -0.0016758833     1    10     4     6
 -0.0036181808     1    10     4     9
 -0.0010196308     1    10     4    12
 -0.0080570332     1    10     5     5
 -0.0049675052     1    10     5    11
 0.1153308436     1    10     6     1
 -0.0032478485     1    10     6     2
 0.0035519110     1    10     6     4
 0.0008125044     1    10     6     6
 0.0006020313     1    10     6     9
 -0.0000059970     1    10     6    12
 -0.0019235218     1    10     7     3
 -0.0003344389     1    10     7     7
 0.0005358065     1    10     7     8
 0.0040155096     1    10     8     3
 0.0008161472     1    10     8     7
 -0.0007794819     1    10     8     8
 -0.0347131237     1    10     9     1
 0.0046368896     1    10     9     2
 -0.0018743270     1    10     9     4
 -0.0016835387     1    10     9     6
 -0.0012816724     1    10     9     9
 0.0011837912     1    10     9    12
 -0.4570490527     1    10    10     1
 0.0064078377     1    10    10     2
 -0.0067736459     1    10    10     4
 -0.0010783172     1    10    10     6
 -0.0032952475     1    10    10     9
 0.0001652654     1    10    10    12
 -0.0039609099     1    10    11     5
 -0.0027081874     1    10    11    11
 -0.0437029486     1    10    12     1
 0.0023257486     1    10    12     2
 -0.0041101669     1    10    12     4
 -0.0003791116     1    10    12     6
 -0.0002837453     1    10    12     9
 0.0007195668     1    10    12    12
 0.0048623658     1    11     2     5
 -0.0011010132     1    11     4     5
 -0.2862346603     1    11     5     1
 0.0239564919     1    11     5     2
 -0.0076679097     1    11     5     4
 -0.0046920302     1    11     5     6
 -0.0043686745     1    11     5     9
 0.0049675052     1    11     5    10
 0.0037075362     1    11     5    12
 0.0021540475     1    11     6     5
 -0.0014033332     1    11     9     5
 0.0011645055     1    11    10     5
 -0.5397746850     1    11    11     1
 0.0135769208     1    11    11     2
 -0.0044887406     1    11    11     4
 -0.0045568302     1    11    11     6
 -0.0019991884     1    11    11     9
 0.0027081874     1    11    11    10
 0.0022174389     1    11    11    12
 0.0004953539     1    11    12     5
 -0.0725949717     1    12     2     1
 0.0015519669     1    12     2     2
 0.0011396141     1    12     2     4
 -0.0003739698     1    12     2     6
 -0.0001285657     1    12     2     9
 0.0002261163     1    12     2    10
 -0.0042539311     1    12     3     3
 -0.0018221376     1    12     3     7
 0.0020842417     1    12     3     8
 -0.0488726725     1    12     4     1
 0.0063925974     1    12     4     2
 -0.0020990904     1    12     4     4
 -0.0011598671     1    12     4     6
 -0.0006950510     1    12     4     9
 0.0010196308     1    12     4    10
 -0.0060874339     1    12     5     5
 -0.0037075362     1    12     5    11
 0.0620030140     1    12     6     1
 -0.0014125768     1    12     6     2
 0.0014412467     1    12     6     4
 0.0003306228     1    12     6     6
 0.0002597785     1    12     6     9
 0.0000059970     1    12     6    10
 -0.0011614911     1    12     7     3
 -0.0002947478     1    12     7     7
 0.0003477583     1    12     7     8
 0.0026800536     1    12     8     3
 0.0007274552     1    12     8     7
 -0.0005869635     1    12     8     8
 -0.0247590367     1    12     9     1
 0.0014607779     1    12     9     2
 -0.0031884731     1    12     9     4
 -0.0001290156     1    12     9     6
 -0.0013746699     1    12     9     9
 -0.0011837912     1    12     9    10
 -0.0437029486     1    12    10     1
 0.0025689773     1    12    10     2
 -0.0030456718     1    12    10     4
 -0.0003731037     1    12    10     6
 -0.0014686674     1    12    10     9
 -0.0001652654     1    12    10    10
 -0.0032691251     1    12    11     5
 -0.0022174389     1    12    11    11
 -0.3784738012     1    12    12     1
 0.0008875402     1    12    12     2
 -0.0031899035     1    12    12     4
 0.0001924657     1    12    12     6
 -0.0006279003     1    12    12     9
 -0.0007195668     1    12    12    10
 -0.9839101220     2     1     1     2
 0.0672009642     2     1     1     4
 0.1250384468     2     1     1     6
 0.0340908471     2     1     1     9
 -0.1075621898     2     1     1    10
 -0.0725949717     2     1     1    12
 -0.0311774351     2     1     3     3
 -0.0079316351     2     1     3     7
 0.0057114386     2     1     3     8
 -0.0070079623     2     1     4     2
 -0.0359989035     2     1     4     4
 0.0059936264     2     1     4     6
 -0.0084349613     2     1     4     9
 -0.0121204552     2     1     4    10
 -0.0047882071     2     1     4    12
 -0.0409302307     2     1     5     5
 -0.0174218287     2     1     5    11
 0.0012768991     2     1     6     2
 0.0062648303     2     1     6     4
 -0.0013657728     2     1     6     6
 0.0014819379     2     1     6     9
 0.0026748989     2     1     6    10
 0.0010513722     2     1     6    12
 -0.0108322010     2     1     7     3
 -0.0033961385     2     1     7     7
 0.0023506432     2     1     7     8
 0.0086590997     2     1     8     3
 0.0026669410     2     1     8     7
 -0.0020105884     2     1     8     8
 -0.0030213156     2     1     9     2
 -0.0116349860     2     1     9     4
 0.0021699768     2     1     9     6
 -0.0039737433     2     1     9     9
 -0.0052792148     2     1     9    10
 -0.0015693296     2     1     9    12
 -0.0035761054     2     1    10     2
 -0.0148904679     2     1    10     4
 0.0032478485     2     1    10     6
 -0.0046368896     2     1    10     9
 -0.0064078377     2     1    10    10
 -0.0023257486     2     1    10    12
 -0.0239564919     2     1    11     5
 -0.0135769208     2     1    11    11
 -0.0015519669     2     1    12     2
 -0.0063925974     2     1    12     4
 0.0014125768     2     1    12     6
 -0.0014607779     2     1    12     9
 -0.0025689773     2     1    12    10
 -0.0008875402     2     1    12    12
 0.9839101220     2     2     1     1
 0.0070079623     2     2     1     4
 -0.0012768991     2     2     1     6
 0.0030213156     2     2     1     9
 0.0035761054     2     2     1    10
 0.0015519669     2     2     1    12
 0.5283612958     2     2     3     3
 0.0595646416     2     2     3     7
 -0.0148267161     2     2     3     8
 0.0070079623     2     2     4     1
 0.5508529091     2     2     4     4
 -0.0282544988     2     2     4     6
 0.0654391627     2     2     4     9
 0.0598100490     2     2     4    10
 0.0103562905     2     2     4    12
 0.5785197388     2     2     5     5
 0.1115910298     2     2     5    11
 -0.0012768991     2     2     6     1
 -0.0282544988     2     2     6     4
 0.2798402862     2     2     6     6
 -0.0081326113     2     2     6     9
 -0.0683414506     2     2     6    10
 -0.0358239984     2     2     6    12
 0.0595646416     2     2     7     3
 0.2556690819     2     2     7     7
 -0.0429584658     2     2     7     8
 -0.0148267161     2     2     8     3
 -0.0429584658     2     2     8     7
 0.3579322266     2     2     8     8
 0.0030213156     2     2     9     1
 0.0654391627     2     2     9     4
 -0.0081326113     2     2     9     6
 0.3320319015     2     2     9     9
 -0.0014146588     2     2     9    10
 0.0243084137     2     2     9    12
 0.0035761054     2     2    10     1
 0.0598100490     2     2    10     4
 -0.0683414506     2     2    10     6
 -0.0014146588     2     2    10     9
 0.3779276559     2     2    10    10
 0.0129740725     2     2    10    12
 0.1115910298     2     2    11     5
 0.4082574858     2     2    11    11
 0.0015519669     2     2    12     1
 0.0103562905     2     2    12     4
 -0.0358239984     2     2    12     6
 0.0243084137     2     2    12     9
 0.0129740725     2     2    12    10
 0.3565236380     2     2    12    12
 0.0021364917     2     3     1     7
 -0.0024248350     2     3     1     8
 0.0311774351     2     3     3     1
 -0.5283612958     2     3     3     2
 0.0018733682     2     3     3     4
 0.0575219189     2     3     3     6
 0.0209610316     2     3     3     9
 -0.0643040722     2     3     3    10
 -0.0140575765     2     3     3    12
 -0.0081635691     2     3     4     7
 0.0274685069     2     3     4     8
 -0.0298327506     2     3     6     7
 -0.0003732633     2     3     6     8
 0.0108322010     2     3     7     1
 -0.0595646416     2     3     7     2
 -0.0005219101     2     3     7     4
 -0.0189397465     2     3     7     6
 -0.0013372567     2     3     7     9
 0.0040523268     2     3     7    10
 -0.0102093231     2     3     7    12
 -0.0086590997     2     3     8     1
 0.0148267161     2     3     8     2
 0.0042452137     2     3     8     4
 -0.0021369631     2     3     8     6
 -0.0151324978     2     3     8     9
 -0.0277509391     2     3     8    10
 -0.0145476514     2     3     8    12
 -0.0055960330     2     3     9     7
 -0.0118227318     2     3     9     8
 0.0158548008     2     3    10     7
 -0.0268022077     2     3    10     8
 -0.0054499672     2     3    12     7
 -0.0184252882     2     3    12     8
 -0.0672009642     2     4     1     1
 -0.0070079623     2     4     1     2
 0.0002807052     2     4     1     6
 0.0023373393     2     4     1     9
 0.0016565271     2     4     1    10
 0.0011396141     2     4     1    12
 -0.0018733682     2     4     3     3
 -0.0075865270     2     4     3     7
 0.0229188239     2     4     3     8
 0.0359989035     2     4     4     1
 -0.5508529091     2     4     4     2
 0.0572232682     2     4     4     6
 0.0057513076     2     4     4     9
 -0.0423979893     2     4     4    10
 -0.0510692296     2     4     4    12
 -0.0040377182     2     4     5     5
 -0.0052799968     2     4     5    11
 -0.0062648303     2     4     6     1
 0.0282544988     2     4     6     2
 0.0093342572     2     4     6     6
 -0.0197104744     2     4     6     9
 -0.0077138747     2     4     6    10
 -0.0016333317     2     4     6    12
 0.0005219101     2     4     7     3
 0.0111970642     2     4     7     7
 -0.0054629451     2     4     7     8
 -0.0042452137     2     4     8     3
 -0.0094950104     2     4     8     7
 -0.0009324556     2     4     8     8
 0.0116349860     2     4     9     1
 -0.0654391627     2     4     9     2
 -0.0071789996     2     4     9     6
 -0.0100773654     2     4     9     9
 -0.0238137630     2     4     9    10
 0.0130728761     2     4     9    12
 0.0148904679     2     4    10     1
 -0.0598100490     2     4    10     2
 -0.0009494623     2     4    10     6
 -0.0115372685     2     4    10     9
 0.0094319107     2     4    10    10
 0.0050369083     2     4    10    12
 -0.0036080733     2     4    11     5
 -0.0093019119     2     4    11    11
 0.0063925974     2     4    12     1
 -0.0103562905     2     4    12     2
 -0.0038747764     2     4    12     6
 0.0233368521     2     4    12     9
 0.0105173896     2     4    12    10
 0.0151460851     2     4    12    12
 0.0048623658     2     5     1    11
 -0.0016417840     2     5     4    11
 0.0409302307     2     5     5     1
 -0.5785197388     2     5     5     2
 0.0040377182     2     5     5     4
 0.0553448543     2     5     5     6
 -0.0003084631     2     5     5     9
 -0.0321590255     2     5     5    10
 -0.0212922669     2     5     5    12
 -0.0233102352     2     5     6    11
 0.0072890715     2     5     9    11
 -0.0026282651     2     5    10    11
 0.0239564919     2     5    11     1
 -0.1115910298     2     5    11     2
 0.0036080733     2     5    11     4
 -0.0038028475     2     5    11     6
 0.0097555441     2     5    11     9
 -0.0178431798     2     5    11    10
 -0.0100962052     2     5    11    12
 0.0000809359     2     5    12    11
 -0.1250384468     2     6     1     1
 0.0012768991     2     6     1     2
 -0.0002807052     2     6     1     4
 -0.0006900330     2     6     1     9
 -0.0006091002     2     6     1    10
 -0.0003739698     2     6     1    12
 -0.0575219189     2     6     3     3
 -0.0106845183     2     6     3     7
 0.0015229970     2     6     3     8
 -0.0059936264     2     6     4     1
 0.0282544988     2     6     4     2
 -0.0572232682     2     6     4     4
 -0.0122747325     2     6     4     9
 -0.0065575392     2     6     4    10
 0.0020679792     2     6     4    12
 -0.0553448543     2     6     5     5
 -0.0190773037     2     6     5    11
 0.0013657728     2     6     6     1
 -0.2798402862     2     6     6     2
 -0.0093342572     2     6     6     4
 0.0017068878     2     6     6     9
 0.0051182447     2     6     6    10
 0.0037916370     2     6     6    12
 0.0189397465     2     6     7     3
 -0.0055615447     2     6     7     7
 0.0080079051     2     6     7     8
 0.0021369631     2     6     8     3
 0.0045960042     2     6     8     7
 -0.0181329333     2     6     8     8
 -0.0021699768     2     6     9     1
 0.0081326113     2     6     9     2
 0.0071789996     2     6     9     4
 -0.0138507354     2     6     9     9
 0.0009408989     2     6     9    10
 -0.0049953476     2     6     9    12
 -0.0032478485     2     6    10     1
 0.0683414506     2     6    10     2
 0.0009494623     2     6    10     4
 -0.0003443337     2     6    10     9
 -0.0147027212     2     6    10    10
 0.0004401229     2     6    10    12
 0.0038028475     2     6    11     5
 -0.0234151357     2     6    11    11
 -0.0014125768     2     6    12     1
 0.0358239984     2     6    12     2
 0.0038747764     2     6    12     4
 -0.0030879263     2     6    12     9
 0.0012658595     2     6    12    10
 -0.0153930852     2     6    12    12
 -0.0021364917     2     7     1     3
 -0.0003108192     2     7     1     8
 0.0079316351     2     7     3     1
 -0.0595646416     2     7     3     2
 0.0075865270     2     7     3     4
 0.0106845183     2     7     3     6
 0.0042342447     2     7     3     9
 -0.0113759664     2     7     3    10
 -0.0046191578     2     7     3    12
 0.0081635691     2     7     4     3
 0.0039851137     2     7     4     8
 0.0298327506     2     7     6     3
 0.0034192141     2     7     6     8
 0.0033961385     2     7     7     1
 -0.2556690819     2     7     7     2
 -0.0111970642     2     7     7     4
 0.0055615447     2     7     7     6
 -0.0005732990     2     7     7     9
 0.0007250784     2     7     7    10
 -0.0014540534     2     7     7    12
 -0.0026669410     2     7     8     1
 0.0429584658     2     7     8     2
 0.0094950104     2     7     8     4
 -0.0045960042     2     7     8     6
 -0.0015806392     2     7     8     9
 0.0014884038     2     7     8    10
 -0.0003864923     2     7     8    12
 0.0055960330     2     7     9     3
 -0.0018481605     2     7     9     8
 -0.0158548008     2     7    10     3
 -0.0037155740     2     7    10     8
 0.0054499672     2     7    12     3
 -0.0011713672     2     7    12     8
 0.0024248350     2     8     1     3
 0.0003108192     2     8     1     7
 -0.0057114386     2     8     3     1
 0.0148267161     2     8     3     2
 -0.0229188239     2     8     3     4
 -0.0015229970     2     8     3     6
 -0.0029473516     2     8     3     9
 -0.0012273927     2     8     3    10
 0.0037451624     2     8     3    12
 -0.0274685069     2     8     4     3
 -0.0039851137     2     8     4     7
 0.0003732633     2     8     6     3