&FCI NORB= 10,NELEC=  6,MS2=0,
 ORBSYM=1,1,1,1,1,1,1,1,1,1
 ISYM=1,
&END
 0.2008069449     1     1     2     2
 0.0254774830     1     1     2     4
 0.0013515877     1     1     2     6
 -0.0078101319     1     1     2     8
 0.2429125045     1     1     3     3
 -0.0369225985     1     1     3     5
 0.0094815476     1     1     3     7
 0.0254774830     1     1     4     2
 0.2431332734     1     1     4     4
 -0.0527085155     1     1     4     6
 -0.0323400627     1     1     4     8
 -0.0369225985     1     1     5     3
 0.1860978824     1     1     5     5
 0.0019548730     1     1     5     7
 0.0013515877     1     1     6     2
 -0.0527085155     1     1     6     4
 0.1880612599     1     1     6     6
 -0.0089924276     1     1     6     8
 0.0094815476     1     1     7     3
 0.0019548730     1     1     7     5
 0.2381447048     1     1     7     7
 -0.0078101319     1     1     8     2
 -0.0323400627     1     1     8     4
 -0.0089924276     1     1     8     6
 0.1985003122     1     1     8     8
 0.2951909150     1     1     9     9
 0.2951909150     1     1    10    10
 -0.2008069449     1     2     2     1
 0.0663670451     1     2     2     3
 -0.0046176645     1     2     2     5
 0.0103628812     1     2     2     7
 -0.0553059998     1     2     3     4
 0.0263243649     1     2     3     6
 0.0135582055     1     2     3     8
 -0.0254774830     1     2     4     1
 -0.0198850807     1     2     4     3
 -0.0450979185     1     2     4     5
 0.0134556501     1     2     4     7
 -0.0329617234     1     2     5     4
 -0.0350753941     1     2     5     6
 -0.0072277301     1     2     5     8
 -0.0013515877     1     2     6     1
 0.0171357621     1     2     6     3
 -0.0288311264     1     2     6     5
 -0.0169023714     1     2     6     7
 0.0074614366     1     2     7     4
 -0.0155572892     1     2     7     6
 0.0365425166     1     2     7     8
 0.0078101319     1     2     8     1
 0.0011850710     1     2     8     3
 -0.0027486046     1     2     8     5
 0.0336748234     1     2     8     7
 0.0000000001     1     2     8     8
 -0.0663670451     1     3     2     2
 -0.0362876602     1     3     2     4
 0.0094274387     1     3     2     6
 0.0124438034     1     3     2     8
 -0.2429125045     1     3     3     1
 0.0263744673     1     3     3     5
 0.0066145173     1     3     3     7
 0.0198850807     1     3     4     2
 -0.0059088225     1     3     4     4
 0.0177515251     1     3     4     6
 0.0089120334     1     3     4     8
 0.0369225985     1     3     5     1
 0.0044851281     1     3     5     5
 -0.0064204450     1     3     5     7
 0.0000000001     1     3     5     8
 -0.0171357621     1     3     6     2
 0.0058375132     1     3     6     4
 0.0020162464     1     3     6     6
 0.0047304547     1     3     6     8
 -0.0094815476     1     3     7     1
 -0.0023280072     1     3     7     5
 -0.0251503652     1     3     7     7
 -0.0011850710     1     3     8     2
 0.0095181199     1     3     8     4
 0.0000000001     1     3     8     5
 0.0009103899     1     3     8     6
 0.0000000001     1     3     8     7
 -0.0052651204     1     3     8     8
 -0.0389105362     1     3     9     9
 -0.0389105362     1     3    10    10
 -0.0254774830     1     4     2     1
 0.0362876602     1     4     2     3
 -0.0129259250     1     4     2     5
 0.0062758464     1     4     2     7
 0.0553059998     1     4     3     2
 0.0120020028     1     4     3     6
 -0.0009385783     1     4     3     8
 -0.2431332734     1     4     4     1
 0.0059088225     1     4     4     3
 0.0051203962     1     4     4     5
 0.0146871675     1     4     4     7
 0.0329617234     1     4     5     2
 0.0029466595     1     4     5     6
 0.0005650618     1     4     5     8
 0.0527085155     1     4     6     1
 -0.0058375132     1     4     6     3
 -0.0031217002     1     4     6     5
 -0.0000000001     1     4     6     6
 -0.0100650827     1     4     6     7
 -0.0000000003     1     4     6     8
 -0.0074614366     1     4     7     2
 -0.0052616788     1     4     7     6
 0.0000000001     1     4     7     7
 0.0090705044     1     4     7     8
 0.0323400627     1     4     8     1
 -0.0095181199     1     4     8     3
 0.0026454818     1     4     8     5
 -0.0000000001     1     4     8     6
 0.0042703816     1     4     8     7
 0.0046176645     1     5     2     2
 0.0129259250     1     5     2     4
 -0.0071006784     1     5     2     6
 -0.0050250104     1     5     2     8
 0.0369225985     1     5     3     1
 -0.0263744673     1     5     3     3
 -0.0043040899     1     5     3     7
 0.0000000001     1     5     3     8
 0.0450979185     1     5     4     2
 -0.0051203962     1     5     4     4
 0.0060896393     1     5     4     6
 -0.0020008565     1     5     4     8
 -0.1860978824     1     5     5     1
 -0.0044851281     1     5     5     3
 0.0077617347     1     5     5     7
 -0.0000000001     1     5     5     8
 0.0288311264     1     5     6     2
 0.0031217002     1     5     6     4
 -0.0025932363     1     5     6     6
 0.0000919838     1     5     6     8
 -0.0019548730     1     5     7     1
 0.0023280072     1     5     7     3
 -0.0000000001     1     5     7     6
 -0.0044036077     1     5     7     7
 0.0000000002     1     5     7     8
 0.0027486046     1     5     8     2
 -0.0000000001     1     5     8     3
 -0.0026454818     1     5     8     4
 0.0030184992     1     5     8     6
 -0.0036918913     1     5     8     8
 -0.0086883052     1     5     9     9
 -0.0086883052     1     5    10    10
 -0.0013515877     1     6     2     1
 -0.0094274387     1     6     2     3
 0.0071006784     1     6     2     5
 -0.0015386819     1     6     2     7
 -0.0263243649     1     6     3     2
 -0.0120020028     1     6     3     4
 0.0040573533     1     6     3     8
 0.0527085155     1     6     4     1
 -0.0177515251     1     6     4     3
 -0.0060896393     1     6     4     5
 -0.0047736755     1     6     4     7
 -0.0000000002     1     6     4     8
 0.0350753941     1     6     5     2
 -0.0029466595     1     6     5     4
 0.0000000001     1     6     5     7
 -0.0028694452     1     6     5     8
 -0.1880612599     1     6     6     1
 -0.0020162464     1     6     6     3
 0.0000000001     1     6     6     4
 0.0025932363     1     6     6     5
 0.0072774251     1     6     6     7
 -0.0000000012     1     6     6     8
 0.0155572892     1     6     7     2
 0.0052616788     1     6     7     4
 0.0000000001     1     6     7     5
 -0.0022622058     1     6     7     8
 0.0089924276     1     6     8     1
 -0.0009103899     1     6     8     3
 0.0000000001     1     6     8     4
 -0.0030184992     1     6     8     5
 0.0013320932     1     6     8     7
 -0.0000000010     1     6     8     8
 -0.0103628812     1     7     2     2
 -0.0062758464     1     7     2     4
 0.0015386819     1     7     2     6
 0.0031715951     1     7     2     8
 -0.0094815476     1     7     3     1
 -0.0066145173     1     7     3     3
 0.0043040899     1     7     3     5
 -0.0000000001     1     7     3     8
 -0.0134556501     1     7     4     2
 -0.0146871675     1     7     4     4
 0.0047736755     1     7     4     6
 0.0047051541     1     7     4     8
 -0.0019548730     1     7     5     1
 0.0064204450     1     7     5     3
 -0.0077617347     1     7     5     5
 -0.0000000001     1     7     5     6
 0.0000000001     1     7     5     8
 0.0169023714     1     7     6     2
 0.0100650827     1     7     6     4
 -0.0072774251     1     7     6     6
 -0.0035413488     1     7     6     8
 -0.2381447048     1     7     7     1
 0.0251503652     1     7     7     3
 -0.0000000001     1     7     7     4
 0.0044036077     1     7     7     5
 -0.0000000001     1     7     7     8
 -0.0336748234     1     7     8     2
 -0.0000000001     1     7     8     3
 -0.0042703816     1     7     8     4
 -0.0013320932     1     7     8     6
 -0.0019677391     1     7     8     8
 -0.0312156311     1     7     9     9
 -0.0312156311     1     7    10    10
 0.0078101319     1     8     2     1
 -0.0124438034     1     8     2     3
 0.0050250104     1     8     2     5
 -0.0031715951     1     8     2     7
 -0.0135582055     1     8     3     2
 0.0009385783     1     8     3     4
 -0.0000000001     1     8     3     5
 -0.0040573533     1     8     3     6
 0.0000000001     1     8     3     7
 0.0323400627     1     8     4     1
 -0.0089120334     1     8     4     3
 0.0020008565     1     8     4     5
 0.0000000002     1     8     4     6
 -0.0047051541     1     8     4     7
 0.0072277301     1     8     5     2
 -0.0000000001     1     8     5     3
 -0.0005650618     1     8     5     4
 0.0000000001     1     8     5     5
 0.0028694452     1     8     5     6
 -0.0000000001     1     8     5     7
 0.0089924276     1     8     6     1
 -0.0047304547     1     8     6     3
 0.0000000003     1     8     6     4
 -0.0000919838     1     8     6     5
 0.0000000012     1     8     6     6
 0.0035413488     1     8     6     7
 -0.0365425166     1     8     7     2
 -0.0090705044     1     8     7     4
 -0.0000000002     1     8     7     5
 0.0022622058     1     8     7     6
 0.0000000001     1     8     7     7
 -0.1985003122     1     8     8     1
 -0.0000000001     1     8     8     2
 0.0052651204     1     8     8     3
 0.0036918913     1     8     8     5
 0.0000000010     1     8     8     6
 0.0019677391     1     8     8     7
 -0.2951909150     1     9     9     1
 0.0389105362     1     9     9     3
 0.0086883052     1     9     9     5
 0.0312156311     1     9     9     7
 -0.2951909150     1    10    10     1
 0.0389105362     1    10    10     3
 0.0086883052     1    10    10     5
 0.0312156311     1    10    10     7
 -0.2008069449     2     1     1     2
 -0.0254774830     2     1     1     4
 -0.0013515877     2     1     1     6
 0.0078101319     2     1     1     8
 0.0663670451     2     1     3     2
 -0.0198850807     2     1     3     4
 0.0171357621     2     1     3     6
 0.0011850710     2     1     3     8
 -0.0553059998     2     1     4     3
 -0.0329617234     2     1     4     5
 0.0074614366     2     1     4     7
 -0.0046176645     2     1     5     2
 -0.0450979185     2     1     5     4
 -0.0288311264     2     1     5     6
 -0.0027486046     2     1     5     8
 0.0263243649     2     1     6     3
 -0.0350753941     2     1     6     5
 -0.0155572892     2     1     6     7
 0.0103628812     2     1     7     2
 0.0134556501     2     1     7     4
 -0.0169023714     2     1     7     6
 0.0336748234     2     1     7     8
 0.0135582055     2     1     8     3
 -0.0072277301     2     1     8     5
 0.0365425166     2     1     8     7
 0.0000000001     2     1     8     8
 0.2008069449     2     2     1     1
 -0.0663670451     2     2     1     3
 0.0046176645     2     2     1     5
 -0.0103628812     2     2     1     7
 -0.0663670451     2     2     3     1
 0.2023152817     2     2     3     3
 -0.0132734961     2     2     3     5
 0.0101878676     2     2     3     7
 0.2255070288     2     2     4     4
 -0.0349857593     2     2     4     6
 -0.0194719477     2     2     4     8
 0.0046176645     2     2     5     1
 -0.0132734961     2     2     5     3
 0.1888684521     2     2     5     5
 -0.0008478856     2     2     5     7
 -0.0349857593     2     2     6     4
 0.1880203226     2     2     6     6
 -0.0069063181     2     2     6     8
 -0.0103628812     2     2     7     1
 0.0101878676     2     2     7     3
 -0.0008478856     2     2     7     5
 0.2108122116     2     2     7     7
 -0.0194719477     2     2     8     4
 -0.0069063181     2     2     8     6
 0.1917016553     2     2     8     8
 0.2577368392     2     2     9     9
 0.2577368392     2     2    10    10
 0.0663670451     2     3     1     2
 0.0362876602     2     3     1     4
 -0.0094274387     2     3     1     6
 -0.0124438034     2     3     1     8
 -0.2023152817     2     3     3     2
 -0.0718327555     2     3     3     4
 0.0166452333     2     3     3     6
 0.0184616460     2     3     3     8
 0.0553059998     2     3     4     1
 -0.0555184180     2     3     4     5
 0.0065922908     2     3     4     7
 0.0132734961     2     3     5     2
 -0.0297088900     2     3     5     4
 -0.0413370761     2     3     5     6
 -0.0123881846     2     3     5     8
 -0.0263243649     2     3     6     1
 -0.0281940036     2     3     6     5
 -0.0119632146     2     3     6     7
 -0.0000000001     2     3     6     8
 -0.0101878676     2     3     7     2
 0.0009881140     2     3     7     4
 -0.0106484662     2     3     7     6
 0.0342857470     2     3     7     8
 -0.0135582055     2     3     8     1
 -0.0043158275     2     3     8     5
 0.0314569308     2     3     8     7
 0.0000000002     2     3     8     8
 0.0254774830     2     4     1     1
 -0.0362876602     2     4     1     3
 0.0129259250     2     4     1     5
 -0.0062758464     2     4     1     7
 0.0198850807     2     4     3     1
 0.0718327555     2     4     3     3
 -0.0273242379     2     4     3     5
 0.0054682048     2     4     3     7
 -0.2255070288     2     4     4     2
 -0.0274422959     2     4     4     6
 -0.0009753001     2     4     4     8
 0.0450979185     2     4     5     1
 0.0297088900     2     4     5     3
 -0.0051899142     2     4     5     5
 -0.0020257548     2     4     5     7
 0.0349857593     2     4     6     2
 0.0012949548     2     4     6     6
 0.0000000001     2     4     6     7
 -0.0092709446     2     4     6     8
 -0.0134556501     2     4     7     1
 -0.0009881140     2     4     7     3
 0.0012877200     2     4     7     5
 0.0283503096     2     4     7     7
 0.0000000001     2     4     7     8
 0.0194719477     2     4     8     2
 -0.0000000001     2     4     8     5
 -0.0052002820     2     4     8     6
 0.0000000001     2     4     8     7
 0.0067395031     2     4     8     8
 0.0396964353     2     4     9     9
 0.0396964353     2     4    10    10
 -0.0046176645     2     5     1     2
 -0.0129259250     2     5     1     4
 0.0071006784     2     5     1     6
 0.0050250104     2     5     1     8
 0.0132734961     2     5     3     2
 0.0273242379     2     5     3     4
 -0.0142033865     2     5     3     6
 -0.0085159963     2     5     3     8
 0.0329617234     2     5     4     1
 0.0555184180     2     5     4     3
 -0.0034499166     2     5     4     7
 -0.1888684521     2     5     5     2
 0.0051899142     2     5     5     4
 -0.0113026359     2     5     5     6
 0.0014013114     2     5     5     8
 0.0350753941     2     5     6     1
 0.0281940036     2     5     6     3
 0.0000000001     2     5     6     6
 0.0006693474     2     5     6     7
 0.0000000001     2     5     6     8
 0.0008478856     2     5     7     2
 -0.0012877200     2     5     7     4
 0.0039399568     2     5     7     6
 -0.0000000001     2     5     7     7
 -0.0072703319     2     5     7     8
 0.0072277301     2     5     8     1
 0.0043158275     2     5     8     3
 0.0000000001     2     5     8     4
 -0.0074968048     2     5     8     7
 0.0000000001     2     5     8     8
 0.0013515877     2     6     1     1
 0.0094274387     2     6     1     3
 -0.0071006784     2     6     1     5
 0.0015386819     2     6     1     7
 -0.0171357621     2     6     3     1
 -0.0166452333     2     6     3     3
 0.0142033865     2     6     3     5
 -0.0013209021     2     6     3     7
 -0.0000000001     2     6     3     8
 0.0349857593     2     6     4     2
 0.0274422959     2     6     4     4
 0.0000000001     2     6     4     7
 -0.0040270129     2     6     4     8
 0.0288311264     2     6     5     1
 0.0413370761     2     6     5     3
 0.0113026359     2     6     5     5
 -0.0033940854     2     6     5     7
 0.0000000001     2     6     5     8
 -0.1880203226     2     6     6     2
 -0.0012949548     2     6     6     4
 -0.0000000001     2     6     6     5
 0.0000000004     2     6     6     7
 0.0054686320     2     6     6     8
 0.0169023714     2     6     7     1
 0.0106484662     2     6     7     3
 -0.0039399568     2     6     7     5
 -0.0014961482     2     6     7     7
 0.0000000001     2     6     7     8
 0.0069063181     2     6     8     2
 0.0052002820     2     6     8     4
 0.0000000003     2     6     8     7
 0.0054344053     2     6     8     8
 0.0035893474     2     6     9     9
 0.0035893474     2     6    10    10
 0.0103628812     2     7     1     2
 0.0062758464     2     7     1     4
 -0.0015386819     2     7     1     6
 -0.0031715951     2     7     1     8
 -0.0101878676     2     7     3     2
 -0.0054682048     2     7     3     4
 0.0013209021     2     7     3     6
 0.0029497033     2     7     3     8
 -0.0074614366     2     7     4     1
 -0.0065922908     2     7     4     3
 0.0034499166     2     7     4     5
 -0.0000000001     2     7     4     6
 0.0000000001     2     7     4     8
 0.0008478856     2     7     5     2
 0.0020257548     2     7     5     4
 0.0033940854     2     7     5     6
 0.0002760736     2     7     5     8
 0.0155572892     2     7     6     1
 0.0119632146     2     7     6     3
 -0.0000000001     2     7     6     4
 -0.0006693474     2     7     6     5
 -0.0000000004     2     7     6     6
 -0.0000000002     2     7     6     8
 -0.2108122116     2     7     7     2
 -0.0283503096     2     7     7     4
 0.0000000001     2     7     7     5
 0.0014961482     2     7     7     6
 0.0063283881     2     7     7     8
 -0.0365425166     2     7     8     1
 -0.0314569308     2     7     8     3
 -0.0000000001     2     7     8     4
 0.0074968048     2     7     8     5
 -0.0000000003     2     7     8     6
 -0.0000000006     2     7     8     8
 -0.0078101319     2     8     1     1
 0.0124438034     2     8     1     3
 -0.0050250104     2     8     1     5
 0.0031715951     2     8     1     7
 -0.0011850710     2     8     3     1
 -0.0184616460     2     8     3     3
 0.0085159963     2     8     3     5
 0.0000000001     2     8     3     6
 -0.0029497033     2     8     3     7
 0.0194719477     2     8     4     2
 0.0009753001     2     8     4     4
 0.0040270129     2     8     4     6
 -0.0000000001     2     8     4     7
 0.0027486046     2     8     5     1
 0.0123881846     2     8     5     3
 -0.0014013114     2     8     5     5
 -0.0000000001     2     8     5     6
 -0.0002760736     2     8     5     7
 0.0069063181     2     8     6     2
 0.0000000001     2     8     6     3
 0.0092709446     2     8     6     4
 -0.0000000001     2     8     6     5
 -0.0054686320     2     8     6     6
 0.0000000002     2     8     6     7
 -0.0336748234     2     8     7     1
 -0.0342857470     2     8     7     3
 -0.0000000001     2     8     7     4
 0.0072703319     2     8     7     5
 -0.0000000001     2     8     7     6
 -0.0063283881     2     8     7     7
 -0.0000000001     2     8     8     1
 -0.1917016553     2     8     8     2
 -0.0000000002     2     8     8     3
 -0.0067395031     2     8     8     4
 -0.0000000001     2     8     8     5
 -0.0054344053     2     8     8     6
 0.0000000006     2     8     8     7
 -0.0183252819     2     8     9     9
 -0.0183252819     2     8    10    10
 -0.2577368392     2     9     9     2
 -0.0396964353     2     9     9     4
 -0.0035893474     2     9     9     6
 0.0183252819     2     9     9     8
 -0.2577368392     2    10    10     2
 -0.0396964353     2    10    10     4
 -0.0035893474     2    10    10     6
 0.0183252819     2    10    10     8
 -0.2429125045     3     1     1     3
 0.0369225985     3     1     1     5
 -0.0094815476     3     1     1     7
 -0.0663670451     3     1     2     2
 0.0198850807     3     1     2     4
 -0.0171357621     3     1     2     6
 -0.0011850710     3     1     2     8
 -0.0362876602     3     1     4     2
 -0.0059088225     3     1     4     4
 0.0058375132     3     1     4     6
 0.0095181199     3     1     4     8
 0.0263744673     3     1     5     3
 0.0044851281     3     1     5     5
 -0.0023280072     3     1     5     7
 0.0000000001     3     1     5     8
 0.0094274387     3     1     6     2
 0.0177515251     3     1     6     4
 0.0020162464     3     1     6     6
 0.0009103899     3     1     6     8
 0.0066145173     3     1     7     3
 -0.0064204450     3     1     7     5
 -0.0251503652     3     1     7     7
 0.0000000001     3     1     7     8
 0.0124438034     3     1     8     2
 0.0089120334     3     1     8     4
 0.0000000001     3     1     8     5
 0.0047304547     3     1     8     6
 -0.0052651204     3     1     8     8
 -0.0389105362     3     1     9     9
 -0.0389105362     3     1    10    10
 0.0553059998     3     2     1     4
 -0.0263243649     3     2     1     6
 -0.0135582055     3     2     1     8
 0.0663670451     3     2     2     1
 -0.2023152817     3     2     2     3
 0.0132734961     3     2     2     5
 -0.0101878676     3     2     2     7
 0.0362876602     3     2     4     1
 -0.0718327555     3     2     4     3
 -0.0297088900     3     2     4     5
 0.0009881140     3     2     4     7
 -0.0555184180     3     2     5     4
 -0.0281940036     3     2     5     6
 -0.0043158275     3     2     5     8
 -0.0094274387     3     2     6     1
 0.0166452333     3     2     6     3
 -0.0413370761     3     2     6     5
 -0.0106484662     3     2     6     7
 0.0065922908     3     2     7     4
 -0.0119632146     3     2     7     6
 0.0314569308     3     2     7     8
 -0.0124438034     3     2     8     1
 0.0184616460     3     2     8     3
 -0.0123881846     3     2     8     5
 -0.0000000001     3     2     8     6
 0.0342857470     3     2     8     7
 0.0000000002     3     2     8     8
 0.2429125045     3     3     1     1
 -0.0263744673     3     3     1     5
 -0.0066145173     3     3     1     7
 0.2023152817     3     3     2     2
 0.0718327555     3     3     2     4
 -0.0166452333     3     3     2     6
 -0.0184616460     3     3     2     8
 0.0718327555     3     3     4     2
 0.2178307682     3     3     4     4
 -0.0260421921     3     3     4     6
 -0.0240798413     3     3     4     8
 -0.0263744673     3     3     5     1
 0.1838947444     3     3     5     5
 0.0051382121     3     3     5     7
 -0.0166452333     3     3     6     2
 -0.0260421921     3     3     6     4
 0.1807661187     3     3     6     6
 -0.0057485246     3     3     6     8
 -0.0066145173     3     3     7     1
 0.0051382121     3     3     7     5
 0.2116111492     3     3     7     7
 -0.0184616460     3     3     8     2
 -0.0240798413     3     3     8     4
 -0.0057485246     3     3     8     6
 0.1918026169     3     3     8     8
 0.2652076446     3     3     9     9
 0.2652076446     3     3    10    10
 -0.0553059998     3     4     1     2
 -0.0120020028     3     4     1     6
 0.0009385783     3     4     1     8
 -0.0198850807     3     4     2     1
 -0.0718327555     3     4     2     3
 0.0273242379     3     4     2     5
 -0.0054682048     3     4     2     7
 0.0059088225     3     4     4     1
 -0.2178307682     3     4     4     3
 0.0609223252     3     4     4     5
 -0.0000000001     3     4     4     6
 -0.0144092762     3     4     4     7
 0.0000000001     3     4     4     8
 0.0555184180     3     4     5     2
 0.0489209127     3     4     5     6
 0.0105958130     3     4     5     8
 -0.0177515251     3     4     6     1
 0.0260421921     3     4     6     3
 0.0161651850     3     4     6     5
 -0.0000000004     3     4     6     6
 0.0154018644     3     4     6     7
 0.0000000005     3     4     6     8
 -0.0065922908     3     4     7     2
 0.0069794910     3     4     7     6
 -0.0238904389     3     4     7     8
 -0.0089120334     3     4     8     1
 0.0240798413     3     4     8     3
 -0.0038513070     3     4     8     5
 0.0000000002     3     4     8     6
 -0.0183074513     3     4     8     7
 -0.0000000003     3     4     8     8
 -0.0369225985     3     5     1     1
 0.0263744673     3     5     1     3
 0.0043040899     3     5     1     7
 -0.0000000001     3     5     1     8
 -0.0132734961     3     5     2     2
 -0.0273242379     3     5     2     4
 0.0142033865     3     5     2     6
 0.0085159963     3     5     2     8
 0.0297088900     3     5     4     2
 -0.0609223252     3     5     4     4
 0.0329747892     3     5     4     6
 0.0144008707     3     5     4     8
 -0.0044851281     3     5     5     1
 -0.1838947444     3     5     5     3
 -0.0000000002     3     5     5     6
 -0.0011278200     3     5     5     7
 0.0000000003     3     5     5     8
 0.0413370761     3     5     6     2
 -0.0161651850     3     5     6     4
 0.0048747462     3     5     6     6
 0.0000000001     3     5     6     7
 0.0050289727     3     5     6     8
 0.0064204450     3     5     7     1
 -0.0051382121     3     5     7     3
 0.0000000003     3     5     7     6
 -0.0250022249     3     5     7     7
 -0.0000000005     3     5     7     8
 -0.0000000001     3     5     8     1
 0.0123881846     3     5     8     2
 0.0038513070     3     5     8     4
 0.0031705010     3     5     8     6
 -0.0131307597     3     5     8     8
 -0.0372228676     3     5     9     9
 -0.0372228676     3     5    10    10
 0.0263243649     3     6     1     2
 0.0120020028     3     6     1     4
 -0.0040573533     3     6     1     8
 0.0171357621     3     6     2     1
 0.0166452333     3     6     2     3
 -0.0142033865     3     6     2     5
 0.0013209021     3     6     2     7
 0.0000000001     3     6     2     8
 -0.0058375132     3     6     4     1
 0.0260421921     3     6     4     3
 0.0000000001     3     6     4     4
 -0.0329747892     3     6     4     5
 0.0085326665     3     6     4     7
 0.0000000003     3     6     4     8
 0.0281940036     3     6     5     2
 -0.0489209127     3     6     5     4
 0.0000000002     3     6     5     5
 -0.0000000002     3     6     5     7
 0.0017509793     3     6     5     8
 -0.0020162464     3     6     6     1
 -0.1807661187     3     6     6     3
 0.0000000004     3     6     6     4
 -0.0048747462     3     6     6     5
 -0.0060622867     3     6     6     7
 0.0000000041     3     6     6     8
 0.0119632146     3     6     7     2
 -0.0069794910     3     6     7     4
 -0.0000000003     3     6     7     5
 0.0000000005     3     6     7     7
 0.0142780160     3     6     7     8
 -0.0047304547     3     6     8     1
 0.0000000001     3     6     8     2
 0.0057485246     3     6     8     3
 -0.0000000002     3     6     8     4
 -0.0031705010     3     6     8     5
 0.0122984746     3     6     8     7
 0.0000000039     3     6     8     8
 0.0094815476     3     7     1     1
 0.0066145173     3     7     1     3
 -0.0043040899     3     7     1     5
 0.0000000001     3     7     1     8
 0.0101878676     3     7     2     2
 0.0054682048     3     7     2     4
 -0.0013209021     3     7     2     6
 -0.0029497033     3     7     2     8
 -0.0009881140     3     7     4     2
 0.0144092762     3     7     4     4
 -0.0085326665     3     7     4     6
 -0.0056315332     3     7     4     8
 0.0023280072     3     7     5     1
 -0.0051382121     3     7     5     3
 0.0011278200     3     7     5     5
 0.0000000002     3     7     5     6
 -0.0000000005     3     7     5     8
 0.0106484662     3     7     6     2
 -0.0154018644     3     7     6     4
 -0.0000000001     3     7     6     5
 0.0060622867     3     7     6     6
 0.0019475700     3     7     6     8
 0.0251503652     3     7     7     1
 -0.2116111492     3     7     7     3
 0.0250022249     3     7     7     5
 -0.0000000005     3     7     7     6
 0.0000000007     3     7     7     8
 -0.0342857470     3     7     8     2
 0.0183074513     3     7     8     4
 -0.0122984746     3     7     8     6
 -0.0009053946     3     7     8     8
 0.0168354466     3     7     9     9
 0.0168354466     3     7    10    10
 0.0135582055     3     8     1     2
 -0.0009385783     3     8     1     4
 0.0000000001     3     8     1     5
 0.0040573533     3     8     1     6
 -0.0000000001     3     8     1     7
 0.0011850710     3     8     2     1
 0.0184616460     3     8     2     3
 -0.0085159963     3     8     2     5
 -0.0000000001     3     8     2     6
 0.0029497033     3     8     2     7
 -0.0095181199     3     8     4     1
 0.0240798413     3     8     4     3
 -0.0000000001     3     8     4     4
 -0.0144008707     3     8     4     5
 -0.0000000003     3     8     4     6
 0.0056315332     3     8     4     7
 -0.0000000001     3     8     5     1
 0.0043158275     3     8     5     2
 -0.0105958130     3     8     5     4
 -0.0000000003     3     8     5     5
 -0.0017509793     3     8     5     6
 0.0000000005     3     8     5     7
 -0.0009103899     3     8     6     1
 0.0057485246     3     8     6     3
 -0.0000000005     3     8     6     4
 -0.0050289727     3     8     6     5
 -0.0000000041     3     8     6     6
 -0.0019475700     3     8     6     7
 -0.0000000001     3     8     7     1
 -0.0314569308     3     8     7     2
 0.0238904389     3     8     7     4
 0.0000000005     3     8     7     5
 -0.0142780160     3     8     7     6
 -0.0000000007     3     8     7     7
 0.0052651204     3     8     8     1
 -0.0000000002     3     8     8     2
 -0.1918026169     3     8     8     3
 0.0000000003     3     8     8     4
 0.0131307597     3     8     8     5
 -0.0000000039     3     8     8     6
 0.0009053946     3     8     8     7
 0.0389105362     3     9     9     1
 -0.2652076446     3     9     9     3
 0.0372228676     3     9     9     5
 -0.0168354466     3     9     9     7
 0.0389105362     3    10    10     1
 -0.2652076446     3    10    10     3
 0.0372228676     3    10    10     5