&FCI NORB=  6,NELEC= 10,MS2=0,
 ORBSYM=1,1,1,1,1,1
 ISYM=1,
&END
 0.9848467314     1     1     2     2
 -0.0669381116     1     1     2     4
 -0.1089792246     1     1     2     6
 0.8712183860     1     1     3     3
 -0.0669381116     1     1     4     2
 0.9494693157     1     1     4     4
 -0.0526342603     1     1     4     6
 0.9938568938     1     1     5     5
 -0.1089792246     1     1     6     2
 -0.0526342603     1     1     6     4
 0.3152245902     1     1     6     6
 -0.9848467314     1     2     2     1
 0.0069829106     1     2     2     4
 -0.0007594109     1     2     2     6
 0.0308988386     1     2     3     3
 0.0669381116     1     2     4     1
 0.0356730083     1     2     4     4
 -0.0058311424     1     2     4     6
 0.0403920757     1     2     5     5
 0.1089792246     1     2     6     1
 -0.0054195401     1     2     6     4
 0.0014782396     1     2     6     6
 -0.8712183860     1     3     3     1
 -0.0308988386     1     3     3     2
 0.0105892000     1     3     3     4
 0.0041919298     1     3     3     6
 0.0669381116     1     4     2     1
 -0.0069829106     1     4     2     2
 0.0001367617     1     4     2     6
 -0.0105892000     1     4     3     3
 -0.9494693157     1     4     4     1
 -0.0356730083     1     4     4     2
 0.0080511696     1     4     4     6
 -0.0136240761     1     4     5     5
 0.0526342603     1     4     6     1
 0.0054195401     1     4     6     2
 -0.0032142871     1     4     6     6
 -0.9938568938     1     5     5     1
 -0.0403920757     1     5     5     2
 0.0136240761     1     5     5     4
 0.0077377949     1     5     5     6
 0.1089792246     1     6     2     1
 0.0007594109     1     6     2     2
 -0.0001367617     1     6     2     4
 -0.0041919298     1     6     3     3
 0.0526342603     1     6     4     1
 0.0058311424     1     6     4     2
 -0.0080511696     1     6     4     4
 -0.0077377949     1     6     5     5
 -0.3152245902     1     6     6     1
 -0.0014782396     1     6     6     2
 0.0032142871     1     6     6     4
 -0.9848467314     2     1     1     2
 0.0669381116     2     1     1     4
 0.1089792246     2     1     1     6
 0.0308988386     2     1     3     3
 0.0069829106     2     1     4     2
 0.0356730083     2     1     4     4
 -0.0054195401     2     1     4     6
 0.0403920757     2     1     5     5
 -0.0007594109     2     1     6     2
 -0.0058311424     2     1     6     4
 0.0014782396     2     1     6     6
 0.9848467314     2     2     1     1
 -0.0069829106     2     2     1     4
 0.0007594109     2     2     1     6
 0.5283435331     2     2     3     3
 -0.0069829106     2     2     4     1
 0.5501210456     2     2     4     4
 -0.0221065266     2     2     4     6
 0.5762645678     2     2     5     5
 0.0007594109     2     2     6     1
 -0.0221065266     2     2     6     4
 0.2810009558     2     2     6     6
 -0.0308988386     2     3     3     1
 -0.5283435331     2     3     3     2
 0.0017935298     2     3     3     4
 0.0518471787     2     3     3     6
 -0.0669381116     2     4     1     1
 0.0069829106     2     4     1     2
 -0.0001367617     2     4     1     6
 -0.0017935298     2     4     3     3
 -0.0356730083     2     4     4     1
 -0.5501210456     2     4     4     2
 0.0507002611     2     4     4     6
 -0.0042604734     2     4     5     5
 0.0058311424     2     4     6     1
 0.0221065266     2     4     6     2
 0.0102727100     2     4     6     6
 -0.0403920757     2     5     5     1
 -0.5762645678     2     5     5     2
 0.0042604734     2     5     5     4
 0.0502723506     2     5     5     6
 -0.1089792246     2     6     1     1
 -0.0007594109     2     6     1     2
 0.0001367617     2     6     1     4
 -0.0518471787     2     6     3     3
 0.0054195401     2     6     4     1
 0.0221065266     2     6     4     2
 -0.0507002611     2     6     4     4
 -0.0502723506     2     6     5     5
 -0.0014782396     2     6     6     1
 -0.2810009558     2     6     6     2
 -0.0102727100     2     6     6     4
 -0.8712183860     3     1     1     3
 -0.0308988386     3     1     2     3
 0.0105892000     3     1     4     3
 0.0041919298     3     1     6     3
 -0.0308988386     3     2     1     3
 -0.5283435331     3     2     2     3
 0.0017935298     3     2     4     3
 0.0518471787     3     2     6     3
 0.8712183860     3     3     1     1
 0.0308988386     3     3     1     2
 -0.0105892000     3     3     1     4
 -0.0041919298     3     3     1     6
 0.0308988386     3     3     2     1
 0.5283435331     3     3     2     2
 -0.0017935298     3     3     2     4
 -0.0518471787     3     3     2     6
 -0.0105892000     3     3     4     1
 -0.0017935298     3     3     4     2
 0.5601574083     3     3     4     4
 -0.0259724505     3     3     4     6
 0.5824455414     3     3     5     5
 -0.0041919298     3     3     6     1
 -0.0518471787     3     3     6     2
 -0.0259724505     3     3     6     4
 0.2839548510     3     3     6     6
 0.0105892000     3     4     1     3
 0.0017935298     3     4     2     3
 -0.5601574083     3     4     4     3
 0.0259724505     3     4     6     3
 -0.5824455414     3     5     5     3
 0.0041919298     3     6     1     3
 0.0518471787     3     6     2     3
 0.0259724505     3     6     4     3
 -0.2839548510     3     6     6     3
 0.0669381116     4     1     1     2
 -0.9494693157     4     1     1     4
 0.0526342603     4     1     1     6
 -0.0069829106     4     1     2     2
 -0.0356730083     4     1     2     4
 0.0054195401     4     1     2     6
 -0.0105892000     4     1     3     3
 -0.0136240761     4     1     5     5
 0.0001367617     4     1     6     2
 0.0080511696     4     1     6     4
 -0.0032142871     4     1     6     6
 -0.0669381116     4     2     1     1
 -0.0356730083     4     2     1     4
 0.0058311424     4     2     1     6
 0.0069829106     4     2     2     1
 -0.5501210456     4     2     2     4
 0.0221065266     4     2     2     6
 -0.0017935298     4     2     3     3
 -0.0042604734     4     2     5     5
 -0.0001367617     4     2     6     1
 0.0507002611     4     2     6     4
 0.0102727100     4     2     6     6
 0.0105892000     4     3     3     1
 0.0017935298     4     3     3     2
 -0.5601574083     4     3     3     4
 0.0259724505     4     3     3     6
 0.9494693157     4     4     1     1
 0.0356730083     4     4     1     2
 -0.0080511696     4     4     1     6
 0.0356730083     4     4     2     1
 0.5501210456     4     4     2     2
 -0.0507002611     4     4     2     6
 0.5601574083     4     4     3     3
 0.6010509097     4     4     5     5
 -0.0080511696     4     4     6     1
 -0.0507002611     4     4     6     2
 0.2717564923     4     4     6     6
 0.0136240761     4     5     5     1
 0.0042604734     4     5     5     2
 -0.6010509097     4     5     5     4
 0.0302058515     4     5     5     6
 -0.0526342603     4     6     1     1
 -0.0058311424     4     6     1     2
 0.0080511696     4     6     1     4
 -0.0054195401     4     6     2     1
 -0.0221065266     4     6     2     2
 0.0507002611     4     6     2     4
 -0.0259724505     4     6     3     3
 -0.0302058515     4     6     5     5
 0.0032142871     4     6     6     1
 -0.0102727100     4     6     6     2
 -0.2717564923     4     6     6     4
 -0.9938568938     5     1     1     5
 -0.0403920757     5     1     2     5
 0.0136240761     5     1     4     5
 0.0077377949     5     1     6     5
 -0.0403920757     5     2     1     5
 -0.5762645678     5     2     2     5
 0.0042604734     5     2     4     5
 0.0502723506     5     2     6     5
 -0.5824455414     5     3     3     5
 0.0136240761     5     4     1     5
 0.0042604734     5     4     2     5
 -0.6010509097     5     4     4     5
 0.0302058515     5     4     6     5
 0.9938568938     5     5     1     1
 0.0403920757     5     5     1     2
 -0.0136240761     5     5     1     4
 -0.0077377949     5     5     1     6
 0.0403920757     5     5     2     1
 0.5762645678     5     5     2     2
 -0.0042604734     5     5     2     4
 -0.0502723506     5     5     2     6
 0.5824455414     5     5     3     3
 -0.0136240761     5     5     4     1
 -0.0042604734     5     5     4     2
 0.6010509097     5     5     4     4
 -0.0302058515     5     5     4     6
 -0.0077377949     5     5     6     1
 -0.0502723506     5     5     6     2
 -0.0302058515     5     5     6     4
 0.2791988467     5     5     6     6
 0.0077377949     5     6     1     5
 0.0502723506     5     6     2     5
 0.0302058515     5     6     4     5
 -0.2791988467     5     6     6     5
 0.1089792246     6     1     1     2
 0.0526342603     6     1     1     4
 -0.3152245902     6     1     1     6
 0.0007594109     6     1     2     2
 0.0058311424     6     1     2     4
 -0.0014782396     6     1     2     6
 -0.0041919298     6     1     3     3
 -0.0001367617     6     1     4     2
 -0.0080511696     6     1     4     4
 0.0032142871     6     1     4     6
 -0.0077377949     6     1     5     5
 -0.1089792246     6     2     1     1
 0.0054195401     6     2     1     4
 -0.0014782396     6     2     1     6
 -0.0007594109     6     2     2     1
 0.0221065266     6     2     2     4
 -0.2810009558     6     2     2     6
 -0.0518471787     6     2     3     3
 0.0001367617     6     2     4     1
 -0.0507002611     6     2     4     4
 -0.0102727100     6     2     4     6
 -0.0502723506     6     2     5     5
 0.0041919298     6     3     3     1
 0.0518471787     6     3     3     2
 0.0259724505     6     3     3     4
 -0.2839548510     6     3     3     6
 -0.0526342603     6     4     1     1
 -0.0054195401     6     4     1     2
 0.0032142871     6     4     1     6
 -0.0058311424     6     4     2     1
 -0.0221065266     6     4     2     2
 -0.0102727100     6     4     2     6
 -0.0259724505     6     4     3     3
 0.0080511696     6     4     4     1
 0.0507002611     6     4     4     2
 -0.2717564923     6     4     4     6
 -0.0302058515     6     4     5     5
 0.0077377949     6     5     5     1
 0.0502723506     6     5     5     2
 0.0302058515     6     5     5     4
 -0.2791988467     6     5     5     6
 0.3152245902     6     6     1     1
 0.0014782396     6     6     1     2
 -0.0032142871     6     6     1     4
 0.0014782396     6     6     2     1
 0.2810009558     6     6     2     2
 0.0102727100     6     6     2     4
 0.2839548510     6     6     3     3
 -0.0032142871     6     6     4     1
 0.0102727100     6     6     4     2
 0.2717564923     6     6     4     4
 0.2791988467     6     6     5     5
0.0 0 0 0 0
 0.9848467314     1     1     2     2
 -0.0669381116     1     1     2     4
 -0.1089792246     1     1     2     6
 0.8712183860     1     1     3     3
 -0.0669381116     1     1     4     2
 0.9494693157     1     1     4     4
 -0.0526342603     1     1     4     6
 0.9938568938     1     1     5     5
 -0.1089792246     1     1     6     2
 -0.0526342603     1     1     6     4
 0.3152245902     1     1     6     6
 -0.9848467314     1     2     2     1
 0.0069829106     1     2     2     4
 -0.0007594109     1     2     2     6
 0.0308988386     1     2     3     3
 0.0669381116     1     2     4     1
 0.0356730083     1     2     4     4
 -0.0058311424     1     2     4     6
 0.0403920757     1     2     5     5
 0.1089792246     1     2     6     1
 -0.0054195401     1     2     6     4
 0.0014782396     1     2     6     6
 -0.8712183860     1     3     3     1
 -0.0308988386     1     3     3     2
 0.0105892000     1     3     3     4
 0.0041919298     1     3     3     6
 0.0669381116     1     4     2     1
 -0.0069829106     1     4     2     2
 0.0001367617     1     4     2     6
 -0.0105892000     1     4     3     3
 -0.9494693157     1     4     4     1
 -0.0356730083     1     4     4     2
 0.0080511696     1     4     4     6
 -0.0136240761     1     4     5     5
 0.0526342603     1     4     6     1
 0.0054195401     1     4     6     2
 -0.0032142871     1     4     6     6
 -0.9938568938     1     5     5     1
 -0.0403920757     1     5     5     2
 0.0136240761     1     5     5     4
 0.0077377949     1     5     5     6
 0.1089792246     1     6     2     1
 0.0007594109     1     6     2     2
 -0.0001367617     1     6     2     4
 -0.0041919298     1     6     3     3
 0.0526342603     1     6     4     1
 0.0058311424     1     6     4     2
 -0.0080511696     1     6     4     4
 -0.0077377949     1     6     5     5
 -0.3152245902     1     6     6     1
 -0.0014782396     1     6     6     2
 0.0032142871     1     6     6     4
 -0.9848467314     2     1     1     2
 0.0669381116     2     1     1     4
 0.1089792246     2     1     1     6
 0.0308988386     2     1     3     3
 0.0069829106     2     1     4     2
 0.0356730083     2     1     4     4
 -0.0054195401     2     1     4     6
 0.0403920757     2     1     5     5
 -0.0007594109     2     1     6     2
 -0.0058311424     2     1     6     4
 0.0014782396     2     1     6     6
 0.9848467314     2     2     1     1
 -0.0069829106     2     2     1     4
 0.0007594109     2     2     1     6
 0.5283435331     2     2     3     3
 -0.0069829106     2     2     4     1
 0.5501210456     2     2     4     4
 -0.0221065266     2     2     4     6
 0.5762645678     2     2     5     5
 0.0007594109     2     2     6     1
 -0.0221065266     2     2     6     4
 0.2810009558     2     2     6     6
 -0.0308988386     2     3     3     1
 -0.5283435331     2     3     3     2
 0.0017935298     2     3     3     4
 0.0518471787     2     3     3     6
 -0.0669381116     2     4     1     1
 0.0069829106     2     4     1     2
 -0.0001367617     2     4     1     6
 -0.0017935298     2     4     3     3
 -0.0356730083     2     4     4     1
 -0.5501210456     2     4     4     2
 0.0507002611     2     4     4     6
 -0.0042604734     2     4     5     5
 0.0058311424     2     4     6     1
 0.0221065266     2     4     6     2
 0.0102727100     2     4     6     6
 -0.0403920757     2     5     5     1
 -0.5762645678     2     5     5     2
 0.0042604734     2     5     5     4
 0.0502723506     2     5     5     6
 -0.1089792246     2     6     1     1
 -0.0007594109     2     6     1     2
 0.0001367617     2     6     1     4
 -0.0518471787     2     6     3     3
 0.0054195401     2     6     4     1
 0.0221065266     2     6     4     2
 -0.0507002611     2     6     4     4
 -0.0502723506     2     6     5     5
 -0.0014782396     2     6     6     1
 -0.2810009558     2     6     6     2
 -0.0102727100     2     6     6     4
 -0.8712183860     3     1     1     3
 -0.0308988386     3     1     2     3
 0.0105892000     3     1     4     3
 0.0041919298     3     1     6     3
 -0.0308988386     3     2     1     3
 -0.5283435331     3     2     2     3
 0.0017935298     3     2     4     3
 0.0518471787     3     2     6     3
 0.8712183860     3     3     1     1
 0.0308988386     3     3     1     2
 -0.0105892000     3     3     1     4
 -0.0041919298     3     3     1     6
 0.0308988386     3     3     2     1
 0.5283435331     3     3     2     2
 -0.0017935298     3     3     2     4
 -0.0518471787     3     3     2     6
 -0.0105892000     3     3     4     1
 -0.0017935298     3     3     4     2
 0.5601574083     3     3     4     4
 -0.0259724505     3     3     4     6
 0.5824455414     3     3     5     5
 -0.0041919298     3     3     6     1
 -0.0518471787     3     3     6     2
 -0.0259724505     3     3     6     4
 0.2839548510     3     3     6     6
 0.0105892000     3     4     1     3
 0.0017935298     3     4     2     3
 -0.5601574083     3     4     4     3
 0.0259724505     3     4     6     3
 -0.5824455414     3     5     5     3
 0.0041919298     3     6     1     3
 0.0518471787     3     6     2     3
 0.0259724505     3     6     4     3
 -0.2839548510     3     6     6     3
 0.0669381116     4     1     1     2
 -0.9494693157     4     1     1     4
 0.0526342603     4     1     1     6
 -0.0069829106     4     1     2     2
 -0.0356730083     4     1     2     4
 0.0054195401     4     1     2     6
 -0.0105892000     4     1     3     3
 -0.0136240761     4     1     5     5
 0.0001367617     4     1     6     2
 0.0080511696     4     1     6     4
 -0.0032142871     4     1     6     6
 -0.0669381116     4     2     1     1
 -0.0356730083     4     2     1     4
 0.0058311424     4     2     1     6
 0.0069829106     4     2     2     1
 -0.5501210456     4     2     2     4
 0.0221065266     4     2     2     6
 -0.0017935298     4     2     3     3
 -0.0042604734     4     2     5     5
 -0.0001367617     4     2     6     1
 0.0507002611     4     2     6     4
 0.0102727100     4     2     6     6
 0.0105892000     4     3     3     1
 0.0017935298     4     3     3     2
 -0.5601574083     4     3     3     4
 0.0259724505     4     3     3     6
 0.9494693157     4     4     1     1
 0.0356730083     4     4     1     2
 -0.0080511696     4     4     1     6
 0.0356730083     4     4     2     1
 0.5501210456     4     4     2     2
 -0.0507002611     4     4     2     6
 0.5601574083     4     4     3     3
 0.6010509097     4     4     5     5
 -0.0080511696     4     4     6     1
 -0.0507002611     4     4     6     2
 0.2717564923     4     4     6     6
 0.0136240761     4     5     5     1
 0.0042604734     4     5     5     2
 -0.6010509097     4     5     5     4
 0.0302058515     4     5     5     6
 -0.0526342603     4     6     1     1
 -0.0058311424     4     6     1     2
 0.0080511696     4     6     1     4
 -0.0054195401     4     6     2     1
 -0.0221065266     4     6     2     2
 0.0507002611     4     6     2     4
 -0.0259724505     4     6     3     3
 -0.0302058515     4     6     5     5
 0.0032142871     4     6     6     1
 -0.0102727100     4     6     6     2
 -0.2717564923     4     6     6     4
 -0.9938568938     5     1     1     5
 -0.0403920757     5     1     2     5
 0.0136240761     5     1     4     5
 0.0077377949     5     1     6     5
 -0.0403920757     5     2     1     5
 -0.5762645678     5     2     2     5
 0.0042604734     5     2     4     5
 0.0502723506     5     2     6     5
 -0.5824455414     5     3     3     5
 0.0136240761     5     4     1     5
 0.0042604734     5     4     2     5
 -0.6010509097     5     4     4     5
 0.0302058515     5     4     6     5
 0.9938568938     5     5     1     1
 0.0403920757     5     5     1     2
 -0.0136240761     5     5     1     4
 -0.0077377949     5     5     1     6
 0.0403920757     5     5     2     1
 0.5762645678     5     5     2     2
 -0.0042604734     5     5     2     4
 -0.0502723506     5     5     2     6
 0.5824455414     5     5     3     3
 -0.0136240761     5     5     4     1
 -0.0042604734     5     5     4     2
 0.6010509097     5     5     4     4
 -0.0302058515     5     5     4     6
 -0.0077377949     5     5     6     1
 -0.0502723506     5     5     6     2
 -0.0302058515     5     5     6     4
 0.2791988467     5     5     6     6
 0.0077377949     5     6     1     5
 0.0502723506     5     6     2     5
 0.0302058515     5     6     4     5
 -0.2791988467     5     6     6     5
 0.1089792246     6     1     1     2
 0.0526342603     6     1     1     4
 -0.3152245902     6     1     1     6
 0.0007594109     6     1     2     2
 0.0058311424     6     1     2     4
 -0.0014782396     6     1     2     6
 -0.0041919298     6     1     3     3
 -0.0001367617     6     1     4     2
 -0.0080511696     6     1     4     4
 0.0032142871     6     1     4     6
 -0.0077377949     6     1     5     5
 -0.1089792246     6     2     1     1
 0.0054195401     6     2     1     4
 -0.0014782396     6     2     1     6
 -0.0007594109     6     2     2     1
 0.0221065266     6     2     2     4
 -0.2810009558     6     2     2     6
 -0.0518471787     6     2     3     3
 0.0001367617     6     2     4     1
 -0.0507002611     6     2     4     4
 -0.0102727100     6     2     4     6
 -0.0502723506     6     2     5     5
 0.0041919298     6     3     3     1
 0.0518471787     6     3     3     2
 0.0259724505     6     3     3     4
 -0.2839548510     6     3     3     6
 -0.0526342603     6     4     1     1
 -0.0054195401     6     4     1     2
 0.0032142871     6     4     1     6
 -0.0058311424     6     4     2     1
 -0.0221065266     6     4     2     2
 -0.0102727100     6     4     2     6
 -0.0259724505     6     4     3     3
 0.0080511696     6     4     4     1
 0.0507002611     6     4     4     2
 -0.2717564923     6     4     4     6
 -0.0302058515     6     4     5     5
 0.0077377949     6     5     5     1
 0.0502723506     6     5     5     2
 0.0302058515     6     5     5     4
 -0.2791988467     6     5     5     6
 0.3152245902     6     6     1     1
 0.0014782396     6     6     1     2
 -0.0032142871     6     6     1     4
 0.0014782396     6     6     2     1
 0.2810009558     6     6     2     2
 0.0102727100     6     6     2     4
 0.2839548510     6     6     3     3
 -0.0032142871     6     6     4     1
 0.0102727100     6     6     4     2
 0.2717564923     6     6     4     4
 0.2791988467     6     6     5     5
0.0 0 0 0 0
 4.7196037126     1     1     1     1
 0.4296678629     1     1     1     2
 -0.1363900692     1     1     1     4
 -0.1108654599     1     1     1     6
 0.4296678629     1     1     2     1
 1.0482982987     1     1     2     2
 -0.0830127225     1     1     2     4
 -0.1279602103     1     1     2     6
 0.8922220447     1     1     3     3
 -0.1363900692     1     1     4     1
 -0.0830127225     1     1     4     2
 0.9802124991     1     1     4     4
 -0.0532248046     1     1     4     6
 1.0244177338     1     1     5     5
 -0.1108654599     1     1     6     1
 -0.1279602103     1     1     6     2
 -0.0532248046     1     1     6     4
 0.3208899033     1     1     6     6
 0.4296678629     1     2     1     1
 0.0600743790     1     2     1     2
 -0.0161036766     1     2     1     4
 -0.0180240552     1     2     1     6
 0.0634515673     1     2     2     1
 0.0145109272     1     2     2     2
 -0.0075615282     1     2     2     4
 -0.0019149287     1     2     2     6
 0.0070759109     1     2     3     3
 -0.0160746109     1     2     4     1
 -0.0078101935     1     2     4     2
 0.0129968023     1     2     4     4
 0.0009589546     1     2     4     6
 0.0116384818     1     2     5     5
 -0.0189809857     1     2     6     1
 -0.0009461973     1     2     6     2
 0.0010968106     1     2     6     4
 0.0009816288     1     2     6     6
 0.0169733710     1     3     1     3
 -0.0230927511     1     3     2     3
 0.0210036587     1     3     3     1
 -0.0238229277     1     3     3     2
 0.0030121977     1     3     3     4
 0.0036228829     1     3     3     6
 0.0026519068     1     3     4     3
 0.0034865910     1     3     6     3
 -0.1363900692     1     4     1     1
 -0.0161036766     1     4     1     2
 0.0263653528     1     4     1     4
 -0.0002641535     1     4     1     6
 -0.0160746109     1     4     2     1
 -0.0145444388     1     4     2     2
 -0.0220998300     1     4     2     4
 0.0066536385     1     4     2     6
 -0.0075770023     1     4     3     3
 0.0307431834     1     4     4     1
 -0.0226762060     1     4     4     2
 0.0081633358     1     4     4     4
 0.0027467020     1     4     4     6
 -0.0047456443     1     4     5     5
 -0.0005905443     1     4     6     1
 0.0065163507     1     4     6     2
 0.0023650333     1     4     6     4
 -0.0039421260     1     4     6     6
 0.0257942864     1     5     1     5
 -0.0284971024     1     5     2     5
 0.0085854633     1     5     4     5
 0.0305608400     1     5     5     1
 -0.0287535939     1     5     5     2
 0.0088784318     1     5     5     4
 0.0057102604     1     5     5     6
 0.0050718935     1     5     6     5
 -0.1108654599     1     6     1     1
 -0.0180240552     1     6     1     2
 -0.0002641535     1     6     1     4
 0.0062973411     1     6     1     6
 -0.0189809857     1     6     2     1
 -0.0011555178     1     6     2     2
 0.0065168768     1     6     2     4
 -0.0009222083     1     6     2     6
 -0.0005690469     1     6     3     3
 -0.0005905443     1     6     4     1
 0.0067900970     1     6     4     2
 -0.0053044676     1     6     4     4
 -0.0011515015     1     6     4     6
 -0.0020275345     1     6     5     5
 0.0056653131     1     6     6     1
 -0.0004966108     1     6     6     2
 -0.0007278389     1     6     6     4
 0.0003976556     1     6     6     6
 0.4296678629     2     1     1     1
 0.0634515673     2     1     1     2
 -0.0160746109     2     1     1     4
 -0.0189809857     2     1     1     6
 0.0600743790     2     1     2     1
 0.0145109272     2     1     2     2
 -0.0078101935     2     1     2     4
 -0.0009461973     2     1     2     6
 0.0070759109     2     1     3     3
 -0.0161036766     2     1     4     1
 -0.0075615282     2     1     4     2
 0.0129968023     2     1     4     4
 0.0010968106     2     1     4     6
 0.0116384818     2     1     5     5
 -0.0180240552     2     1     6     1
 -0.0019149287     2     1     6     2
 0.0009589546     2     1     6     4
 0.0009816288     2     1     6     6
 1.0482982987     2     2     1     1
 0.0145109272     2     2     1     2
 -0.0145444388     2     2     1     4
 -0.0011555178     2     2     1     6
 0.0145109272     2     2     2     1
 0.7444315509     2     2     2     2
 0.0176977884     2     2     2     4
 -0.0749987936     2     2     2     6
 0.6751477021     2     2     3     3
 -0.0145444388     2     2     4     1
 0.0176977884     2     2     4     2
 0.6680786134     2     2     4     4
 -0.0356913264     2     2     4     6
 0.6964660126     2     2     5     5
 -0.0011555178     2     2     6     1
 -0.0749987936     2     2     6     2
 -0.0356913264     2     2     6     4
 0.2994731558     2     2     6     6
 -0.0230927511     2     3     1     3
 0.1424498629     2     3     2     3
 -0.0238229277     2     3     3     1
 0.1468041690     2     3     3     2
 0.0137591499     2     3     3     4
 -0.0039420807     2     3     3     6
 0.0142374968     2     3     4     3
 -0.0040305640     2     3     6     3
 -0.0830127225     2     4     1     1
 -0.0075615282     2     4     1     2
 -0.0220998300     2     4     1     4
 0.0065168768     2     4     1     6
 -0.0078101935     2     4     2     1
 0.0176977884     2     4     2     2
 0.1137775190     2     4     2     4
 -0.0131398247     2     4     2     6
 0.0119656201     2     4     3     3
 -0.0226762060     2     4     4     1
 0.1179575678     2     4     4     2
 -0.0623562309     2     4     4     4
 -0.0005434404     2     4     4     6
 -0.0312482491     2     4     5     5
 0.0067900970     2     4     6     1
 -0.0135847998     2     4     6     2
 -0.0008906583     2     4     6     4
 0.0201594663     2     4     6     6
 -0.0284971024     2     5     1     5
 0.1166272417     2     5     2     5
 -0.0270246228     2     5     4     5
 -0.0287535939     2     5     5     1
 0.1202014448     2     5     5     2
 -0.0269877757     2     5     5     4
 -0.0155787366     2     5     5     6
 -0.0150032023     2     5     6     5
 -0.1279602103     2     6     1     1
 -0.0019149287     2     6     1     2
 0.0066536385     2     6     1     4
 -0.0009222083     2     6     1     6
 -0.0009461973     2     6     2     1
 -0.0749987936     2     6     2     2
 -0.0131398247     2     6     2     4
 0.0235136479     2     6     2     6
 -0.0557892594     2     6     3     3
 0.0065163507     2     6     4     1
 -0.0135847998     2     6     4     2
 -0.0512437015     2     6     4     4
 0.0130825418     2     6     4     6
 -0.0658510872     2     6     5     5
 -0.0004966108     2     6     6     1
 0.0184722000     2     6     6     2
 0.0098867563     2     6     6     4
 -0.0074025540     2     6     6     6
 0.0210036587     3     1     1     3
 -0.0238229277     3     1     2     3
 0.0169733710     3     1     3     1
 -0.0230927511     3     1     3     2
 0.0026519068     3     1     3     4
 0.0034865910     3     1     3     6
 0.0030121977     3     1     4     3
 0.0036228829     3     1     6     3
 -0.0238229277     3     2     1     3
 0.1468041690     3     2     2     3
 -0.0230927511     3     2     3     1
 0.1424498629     3     2     3     2
 0.0142374968     3     2     3     4
 -0.0040305640     3     2     3     6
 0.0137591499     3     2     4     3
 -0.0039420807     3     2     6     3
 0.8922220447     3     3     1     1
 0.0070759109     3     3     1     2
 -0.0075770023     3     3     1     4
 -0.0005690469     3     3     1     6
 0.0070759109     3     3     2     1
 0.6751477021     3     3     2     2
 0.0119656201     3     3     2     4
 -0.0557892594     3     3     2     6
 0.6492285539     3     3     3     3
 -0.0075770023     3     3     4     1
 0.0119656201     3     3     4     2
 0.5962677612     3     3     4     4
 -0.0247391264     3     3     4     6
 0.6099551458     3     3     5     5
 -0.0005690469     3     3     6     1
 -0.0557892594     3     3     6     2
 -0.0247391264     3     3     6     4
 0.2951878025     3     3     6     6
 0.0030121977     3     4     1     3
 0.0137591499     3     4     2     3
 0.0026519068     3     4     3     1
 0.0142374968     3     4     3     2
 0.0304952587     3     4     3     4
 0.0017561759     3     4     3     6
 0.0361103529     3     4     4     3
 0.0012333241     3     4     6     3
 0.0221272436     3     5     3     5
 0.0275096044     3     5     5     3
 0.0036228829     3     6     1     3
 -0.0039420807     3     6     2     3
 0.0034865910     3     6     3     1
 -0.0040305640     3     6     3     2